 Entering Gaussian System, Link 0=/resnick/groups/WeiLab/software/g16/g16
 Input=Pyruvate-d3_linked.gjf
 Output=Pyruvate-d3_linked.log
 Initial command:
 /resnick/groups/WeiLab/Phil/g16/l1.exe "/resnick/groups/WeiLab/Phil/g16/scratch/Gau-525176.inp" -scrdir="/resnick/groups/WeiLab/Phil/g16/scratch/"
 Entering Link 1 = /resnick/groups/WeiLab/Phil/g16/l1.exe PID=    525177.
  
 Copyright (c) 1988-2017, Gaussian, Inc.  All Rights Reserved.
  
 This is part of the Gaussian(R) 16 program.  It is based on
 the Gaussian(R) 09 system (copyright 2009, Gaussian, Inc.),
 the Gaussian(R) 03 system (copyright 2003, Gaussian, Inc.),
 the Gaussian(R) 98 system (copyright 1998, Gaussian, Inc.),
 the Gaussian(R) 94 system (copyright 1995, Gaussian, Inc.),
 the Gaussian 92(TM) system (copyright 1992, Gaussian, Inc.),
 the Gaussian 90(TM) system (copyright 1990, Gaussian, Inc.),
 the Gaussian 88(TM) system (copyright 1988, Gaussian, Inc.),
 the Gaussian 86(TM) system (copyright 1986, Carnegie Mellon
 University), and the Gaussian 82(TM) system (copyright 1983,
 Carnegie Mellon University). Gaussian is a federally registered
 trademark of Gaussian, Inc.
  
 This software contains proprietary and confidential information,
 including trade secrets, belonging to Gaussian, Inc.
  
 This software is provided under written license and may be
 used, copied, transmitted, or stored only in accord with that
 written license.
  
 The following legend is applicable only to US Government
 contracts under FAR:
  
                    RESTRICTED RIGHTS LEGEND
  
 Use, reproduction and disclosure by the US Government is
 subject to restrictions as set forth in subparagraphs (a)
 and (c) of the Commercial Computer Software - Restricted
 Rights clause in FAR 52.227-19.
  
 Gaussian, Inc.
 340 Quinnipiac St., Bldg. 40, Wallingford CT 06492
  
  
 ---------------------------------------------------------------
 Warning -- This program may not be used in any manner that
 competes with the business of Gaussian, Inc. or will provide
 assistance to any competitor of Gaussian, Inc.  The licensee
 of this program is prohibited from giving any competitor of
 Gaussian, Inc. access to this program.  By using this program,
 the user acknowledges that Gaussian, Inc. is engaged in the
 business of creating and licensing software in the field of
 computational chemistry and represents and warrants to the
 licensee that it is not a competitor of Gaussian, Inc. and that
 it will not use this program in any manner prohibited above.
 ---------------------------------------------------------------
  

 Cite this work as:
 Gaussian 16, Revision B.01,
 M. J. Frisch, G. W. Trucks, H. B. Schlegel, G. E. Scuseria, 
 M. A. Robb, J. R. Cheeseman, G. Scalmani, V. Barone, 
 G. A. Petersson, H. Nakatsuji, X. Li, M. Caricato, A. V. Marenich, 
 J. Bloino, B. G. Janesko, R. Gomperts, B. Mennucci, H. P. Hratchian, 
 J. V. Ortiz, A. F. Izmaylov, J. L. Sonnenberg, D. Williams-Young, 
 F. Ding, F. Lipparini, F. Egidi, J. Goings, B. Peng, A. Petrone, 
 T. Henderson, D. Ranasinghe, V. G. Zakrzewski, J. Gao, N. Rega, 
 G. Zheng, W. Liang, M. Hada, M. Ehara, K. Toyota, R. Fukuda, 
 J. Hasegawa, M. Ishida, T. Nakajima, Y. Honda, O. Kitao, H. Nakai, 
 T. Vreven, K. Throssell, J. A. Montgomery, Jr., J. E. Peralta, 
 F. Ogliaro, M. J. Bearpark, J. J. Heyd, E. N. Brothers, K. N. Kudin, 
 V. N. Staroverov, T. A. Keith, R. Kobayashi, J. Normand, 
 K. Raghavachari, A. P. Rendell, J. C. Burant, S. S. Iyengar, 
 J. Tomasi, M. Cossi, J. M. Millam, M. Klene, C. Adamo, R. Cammi, 
 J. W. Ochterski, R. L. Martin, K. Morokuma, O. Farkas, 
 J. B. Foresman, and D. J. Fox, Gaussian, Inc., Wallingford CT, 2016.
 
 ******************************************
 Gaussian 16:  ES64L-G16RevB.01 20-Dec-2017
                15-Sep-2025 
 ******************************************
 %nprocshared=31
 Will use up to   31 processors via shared memory.
 %mem=190GB
 %chk=Pyruvate-d3_roughopt.chk
 ---------------------------------
 # HF/STO-3G opt geom=connectivity
 ---------------------------------
 1/18=20,19=15,38=1,57=2/1,3;
 2/9=110,12=2,17=6,18=5,40=1/2;
 3/6=3,11=9,25=1,30=1,71=1/1,2,3;
 4//1;
 5/5=2,38=5/2;
 6/7=2,8=2,9=2,10=2,28=1/1;
 7//1,2,3,16;
 1/18=20,19=15/3(2);
 2/9=110/2;
 99//99;
 2/9=110/2;
 3/6=3,11=9,25=1,30=1,71=1/1,2,3;
 4/5=5,16=3,69=1/1;
 5/5=2,38=5/2;
 7//1,2,3,16;
 1/18=20,19=15/3(-5);
 2/9=110/2;
 6/7=2,8=2,9=2,10=2,19=2,28=1/1;
 99/9=1/99;
 -------------------------------------------------
 Pyruvate-d3 HF/STO-3G rough geometry optimization
 -------------------------------------------------
 Symbolic Z-matrix:
 Charge =  0 Multiplicity = 1
 C                     0.95     -0.0113   -0.1627 
 C                     0.4556   -1.162    -0.9902 
 O                    -0.2562   -2.0963   -0.6127 
 C                     0.8701   -1.1853   -2.4426 
 O                     1.5647   -0.351    -2.9794 
 O                     0.3557   -2.2707   -3.0602 
 H(iso=2)              1.7247    0.9001   -0.803 
 H(iso=2)              1.6878   -0.4459    0.8997 
 H(iso=2)             -0.0871    0.6941    0.3748 
 H                    -0.1776   -2.8098   -2.428 
 

 GradGradGradGradGradGradGradGradGradGradGradGradGradGradGradGradGradGrad
 Berny optimization.
 Initialization pass.
                           ----------------------------
                           !    Initial Parameters    !
                           ! (Angstroms and Degrees)  !
 --------------------------                            --------------------------
 ! Name  Definition              Value          Derivative Info.                !
 --------------------------------------------------------------------------------
 ! R1    R(1,2)                  1.5011         estimate D2E/DX2                !
 ! R2    R(1,7)                  1.3568         estimate D2E/DX2                !
 ! R3    R(1,8)                  1.3645         estimate D2E/DX2                !
 ! R4    R(1,9)                  1.3646         estimate D2E/DX2                !
 ! R5    R(2,3)                  1.2337         estimate D2E/DX2                !
 ! R6    R(2,4)                  1.5106         estimate D2E/DX2                !
 ! R7    R(4,5)                  1.2111         estimate D2E/DX2                !
 ! R8    R(4,6)                  1.3506         estimate D2E/DX2                !
 ! R9    R(6,10)                 0.9873         estimate D2E/DX2                !
 ! A1    A(2,1,7)              116.2856         estimate D2E/DX2                !
 ! A2    A(2,1,8)              111.2931         estimate D2E/DX2                !
 ! A3    A(2,1,9)              111.2901         estimate D2E/DX2                !
 ! A4    A(7,1,8)              105.8224         estimate D2E/DX2                !
 ! A5    A(7,1,9)              105.8193         estimate D2E/DX2                !
 ! A6    A(8,1,9)              105.5991         estimate D2E/DX2                !
 ! A7    A(1,2,3)              127.004          estimate D2E/DX2                !
 ! A8    A(1,2,4)              116.8389         estimate D2E/DX2                !
 ! A9    A(3,2,4)              116.1572         estimate D2E/DX2                !
 ! A10   A(2,4,5)              124.9549         estimate D2E/DX2                !
 ! A11   A(2,4,6)              110.3378         estimate D2E/DX2                !
 ! A12   A(5,4,6)              124.7073         estimate D2E/DX2                !
 ! A13   A(4,6,10)             110.594          estimate D2E/DX2                !
 ! D1    D(7,1,2,3)           -179.9954         estimate D2E/DX2                !
 ! D2    D(7,1,2,4)              0.0007         estimate D2E/DX2                !
 ! D3    D(8,1,2,3)             58.7473         estimate D2E/DX2                !
 ! D4    D(8,1,2,4)           -121.2566         estimate D2E/DX2                !
 ! D5    D(9,1,2,3)            -58.7446         estimate D2E/DX2                !
 ! D6    D(9,1,2,4)            121.2515         estimate D2E/DX2                !
 ! D7    D(1,2,4,5)              0.0003         estimate D2E/DX2                !
 ! D8    D(1,2,4,6)            179.9954         estimate D2E/DX2                !
 ! D9    D(3,2,4,5)            179.9969         estimate D2E/DX2                !
 ! D10   D(3,2,4,6)             -0.008          estimate D2E/DX2                !
 ! D11   D(2,4,6,10)             0.0084         estimate D2E/DX2                !
 ! D12   D(5,4,6,10)          -179.9965         estimate D2E/DX2                !
 --------------------------------------------------------------------------------
 Trust Radius=3.00D-01 FncErr=1.00D-07 GrdErr=1.00D-07 EigMax=2.50D+02 EigMin=1.00D-04
 Number of steps in this run=     44 maximum allowed number of steps=    100.
 GradGradGradGradGradGradGradGradGradGradGradGradGradGradGradGradGradGrad

                          Input orientation:                          
 ---------------------------------------------------------------------
 Center     Atomic      Atomic             Coordinates (Angstroms)
 Number     Number       Type             X           Y           Z
 ---------------------------------------------------------------------
      1          6           0        0.950000   -0.011300   -0.162700
      2          6           0        0.455600   -1.162000   -0.990200
      3          8           0       -0.256200   -2.096300   -0.612700
      4          6           0        0.870100   -1.185300   -2.442600
      5          8           0        1.564700   -0.351000   -2.979400
      6          8           0        0.355700   -2.270700   -3.060200
      7          1           0        1.724700    0.900100   -0.803000
      8          1           0        1.687800   -0.445900    0.899700
      9          1           0       -0.087100    0.694100    0.374800
     10          1           0       -0.177600   -2.809800   -2.428000
 ---------------------------------------------------------------------
                    Distance matrix (angstroms):
                    1          2          3          4          5
     1  C    0.000000
     2  C    1.501099   0.000000
     3  O    2.450437   1.233727   0.000000
     4  C    2.565659   1.510569   2.333882   0.000000
     5  O    2.902938   2.417590   3.458760   1.211066   0.000000
     6  O    3.722041   2.350339   2.528852   1.350604   2.270123
     7  H    1.356759   2.428562   3.597025   2.787028   2.515466
     8  H    1.364522   2.367031   2.964846   3.519420   3.882213
     9  H    1.364578   2.367035   2.964807   3.519392   3.882182
    10  H    3.772886   2.276720   1.952069   1.933103   3.063552
                    6          7          8          9         10
     6  O    0.000000
     7  H    4.125904   0.000000
     8  H    4.559078   2.170775   0.000000
     9  H    4.559094   2.170776   2.173796   0.000000
    10  H    0.987276   4.474676   4.487909   4.487894   0.000000
 Stoichiometry    C3H4O3
 Framework group  C1[X(C3H4O3)]
 Deg. of freedom    24
 Full point group                 C1      NOp   1
 Largest Abelian subgroup         C1      NOp   1
 Largest concise Abelian subgroup C1      NOp   1
                         Standard orientation:                         
 ---------------------------------------------------------------------
 Center     Atomic      Atomic             Coordinates (Angstroms)
 Number     Number       Type             X           Y           Z
 ---------------------------------------------------------------------
      1          6           0       -1.815566    0.622521    0.000043
      2          6           0       -0.636773   -0.306857    0.000015
      3          8           0       -0.663660   -1.540290   -0.000044
      4          6           0        0.733287    0.329348   -0.000027
      5          8           0        0.944555    1.521843   -0.000033
      6          8           0        1.692402   -0.621561    0.000053
      7          1           0       -1.534240    1.949793    0.000013
      8          1           0       -2.613083    0.411275    1.086902
      9          1           0       -2.613073    0.411280   -1.086894
     10          1           0        1.288327   -1.522359   -0.000014
 ---------------------------------------------------------------------
 Rotational constants (GHZ):           4.8785251           3.2246021           2.0150584
 Standard basis: STO-3G (5D, 7F)
 There are    34 symmetry adapted cartesian basis functions of A   symmetry.
 There are    34 symmetry adapted basis functions of A   symmetry.
    34 basis functions,   102 primitive gaussians,    34 cartesian basis functions
    23 alpha electrons       23 beta electrons
       nuclear repulsion energy       226.8457569313 Hartrees.
 NAtoms=   10 NActive=   10 NUniq=   10 SFac= 1.00D+00 NAtFMM=   60 NAOKFM=F Big=F
 Integral buffers will be    131072 words long.
 Raffenetti 1 integral format.
 Two-electron integral symmetry is turned on.
 One-electron integrals computed using PRISM.
 NBasis=    34 RedAO= T EigKep=  2.33D-01  NBF=    34
 NBsUse=    34 1.00D-06 EigRej= -1.00D+00 NBFU=    34
 ExpMin= 1.69D-01 ExpMax= 1.31D+02 ExpMxC= 1.31D+02 IAcc=3 IRadAn=         5 AccDes= 0.00D+00
 Harris functional with IExCor=  205 and IRadAn=       5 diagonalized for initial guess.
 HarFok:  IExCor=  205 AccDes= 0.00D+00 IRadAn=         5 IDoV= 1 UseB2=F ITyADJ=14
 ICtDFT=  3500011 ScaDFX=  1.000000  1.000000  1.000000  1.000000
 FoFCou: FMM=F IPFlag=           0 FMFlag=      100000 FMFlg1=           0
         NFxFlg=           0 DoJE=T BraDBF=F KetDBF=T FulRan=T
         wScrn=  0.000000 ICntrl=       500 IOpCl=  0 I1Cent=   200000004 NGrid=           0
         NMat0=    1 NMatS0=      1 NMatT0=    0 NMatD0=    1 NMtDS0=    0 NMtDT0=    0
 Petite list used in FoFCou.
 Keep R1 ints in memory in canonical form, NReq=5828965.
 Requested convergence on RMS density matrix=1.00D-08 within 128 cycles.
 Requested convergence on MAX density matrix=1.00D-06.
 Requested convergence on             energy=1.00D-06.
 No special actions if energy rises.
 SCF Done:  E(RHF) =  -335.894933335     A.U. after   14 cycles
            NFock= 14  Conv=0.21D-08     -V/T= 2.0095

 **********************************************************************

            Population analysis using the SCF Density.

 **********************************************************************

 Orbital symmetries:
       Occupied  (A) (A) (A) (A) (A) (A) (A) (A) (A) (A) (A) (A)
                 (A) (A) (A) (A) (A) (A) (A) (A) (A) (A) (A)
       Virtual   (A) (A) (A) (A) (A) (A) (A) (A) (A) (A) (A)
 The electronic state is 1-A.
 Alpha  occ. eigenvalues --  -20.32507 -20.30451 -20.28210 -11.18618 -11.15627
 Alpha  occ. eigenvalues --  -11.08692  -1.39922  -1.35037  -1.29337  -0.94730
 Alpha  occ. eigenvalues --   -0.81961  -0.71445  -0.63084  -0.58197  -0.57256
 Alpha  occ. eigenvalues --   -0.52688  -0.49283  -0.48121  -0.43251  -0.42633
 Alpha  occ. eigenvalues --   -0.40525  -0.35443  -0.32099
 Alpha virt. eigenvalues --    0.18884   0.35674   0.44306   0.44650   0.51029
 Alpha virt. eigenvalues --    0.56598   0.61446   0.71455   0.75352   0.87560
 Alpha virt. eigenvalues --    1.05727
          Condensed to atoms (all electrons):
               1          2          3          4          5          6
     1  C    4.820083   0.361713  -0.019342  -0.033665  -0.000569   0.000249
     2  C    0.361713   4.819290   0.427375   0.340410  -0.024966  -0.030958
     3  O   -0.019342   0.427375   7.829062  -0.029857   0.000079  -0.003818
     4  C   -0.033665   0.340410  -0.029857   4.728822   0.438603   0.295953
     5  O   -0.000569  -0.024966   0.000079   0.438603   7.843138  -0.017408
     6  O    0.000249  -0.030958  -0.003818   0.295953  -0.017408   7.799364
     7  H    0.320540  -0.013309   0.000282  -0.002307   0.000612   0.000014
     8  H    0.312017  -0.014953  -0.000666   0.000697  -0.000007  -0.000004
     9  H    0.312001  -0.014952  -0.000667   0.000697  -0.000007  -0.000004
    10  H    0.000246  -0.009298   0.008837  -0.044199   0.001410   0.265741
               7          8          9         10
     1  C    0.320540   0.312017   0.312001   0.000246
     2  C   -0.013309  -0.014953  -0.014952  -0.009298
     3  O    0.000282  -0.000666  -0.000667   0.008837
     4  C   -0.002307   0.000697   0.000697  -0.044199
     5  O    0.000612  -0.000007  -0.000007   0.001410
     6  O    0.000014  -0.000004  -0.000004   0.265741
     7  H    0.661666  -0.012032  -0.012032  -0.000003
     8  H   -0.012032   0.686827  -0.010247  -0.000005
     9  H   -0.012032  -0.010247   0.686853  -0.000005
    10  H   -0.000003  -0.000005  -0.000005   0.540500
 Mulliken charges:
               1
     1  C   -0.073273
     2  C    0.159649
     3  O   -0.211285
     4  C    0.304846
     5  O   -0.240886
     6  O   -0.309130
     7  H    0.056567
     8  H    0.038373
     9  H    0.038361
    10  H    0.236778
 Sum of Mulliken charges =  -0.00000
 Mulliken charges with hydrogens summed into heavy atoms:
               1
     1  C    0.060028
     2  C    0.159649
     3  O   -0.211285
     4  C    0.304846
     5  O   -0.240886
     6  O   -0.072352
 Electronic spatial extent (au):  <R**2>=            535.5438
 Charge=             -0.0000 electrons
 Dipole moment (field-independent basis, Debye):
    X=             -1.9307    Y=             -0.8037    Z=             -0.0000  Tot=              2.0913
 Quadrupole moment (field-independent basis, Debye-Ang):
   XX=            -33.9220   YY=            -34.4453   ZZ=            -29.2621
   XY=             -3.7826   XZ=             -0.0004   YZ=              0.0001
 Traceless Quadrupole moment (field-independent basis, Debye-Ang):
   XX=             -1.3789   YY=             -1.9022   ZZ=              3.2810
   XY=             -3.7826   XZ=             -0.0004   YZ=              0.0001
 Octapole moment (field-independent basis, Debye-Ang**2):
  XXX=             -1.3531  YYY=             -7.0520  ZZZ=             -0.0003  XYY=              4.9021
  XXY=             -1.3978  XXZ=             -0.0002  XZZ=              1.9173  YZZ=             -1.5857
  YYZ=              0.0002  XYZ=              0.0004
 Hexadecapole moment (field-independent basis, Debye-Ang**3):
 XXXX=           -348.5798 YYYY=           -208.0750 ZZZZ=            -28.8852 XXXY=              7.6270
 XXXZ=             -0.0010 YYYX=            -12.7410 YYYZ=             -0.0001 ZZZX=              0.0004
 ZZZY=             -0.0000 XXYY=            -92.5675 XXZZ=            -54.7415 YYZZ=            -37.5584
 XXYZ=              0.0003 YYXZ=              0.0001 ZZXY=              3.1950
 N-N= 2.268457569313D+02 E-N=-1.246041728888D+03  KE= 3.327426609877D+02
 Calling FoFJK, ICntrl=      2127 FMM=F ISym2X=0 I1Cent= 0 IOpClX= 0 NMat=1 NMatS=1 NMatT=0.
 ***** Axes restored to original set *****
 -------------------------------------------------------------------
 Center     Atomic                   Forces (Hartrees/Bohr)
 Number     Number              X              Y              Z
 -------------------------------------------------------------------
      1        6           0.050828105    0.135124239    0.121525199
      2        6          -0.015960131   -0.015169743    0.020979006
      3        8           0.008002337    0.014405397    0.004246164
      4        6          -0.000168558    0.000714904    0.002164296
      5        8           0.007527409    0.006242400   -0.011909578
      6        8          -0.003202071   -0.027295543   -0.048461243
      7        1          -0.078387135   -0.096414811    0.055686144
      8        1          -0.073091984    0.040251950   -0.103652949
      9        1           0.099717425   -0.070742588   -0.052548400
     10        1           0.004734604    0.012883796    0.011971362
 -------------------------------------------------------------------
 Cartesian Forces:  Max     0.135124239 RMS     0.056113128

 GradGradGradGradGradGradGradGradGradGradGradGradGradGradGradGradGradGrad
 Berny optimization.
 FormGI is forming the generalized inverse of G from B-inverse, IUseBI=4.
 Internal  Forces:  Max     0.135805145 RMS     0.042045156
 Search for a local minimum.
 Step number   1 out of a maximum of   44
 All quantities printed in internal units (Hartrees-Bohrs-Radians)
 Mixed Optimization -- RFO/linear search
 Second derivative matrix not updated -- first step.
 ITU=  0
     Eigenvalues ---    0.00626   0.00708   0.00751   0.01197   0.02345
     Eigenvalues ---    0.06501   0.07152   0.15706   0.15709   0.16000
     Eigenvalues ---    0.16000   0.16000   0.16000   0.16023   0.25000
     Eigenvalues ---    0.25000   0.25000   0.25000   0.31293   0.32262
     Eigenvalues ---    0.49997   0.54893   0.89551   0.99454
 RFO step:  Lambda=-1.75159336D-01 EMin= 6.26139059D-03
 Linear search not attempted -- first point.
 Maximum step size (   0.300) exceeded in Quadratic search.
    -- Step size scaled by   0.417
 Iteration  1 RMS(Cart)=  0.04956845 RMS(Int)=  0.00034592
 Iteration  2 RMS(Cart)=  0.00054017 RMS(Int)=  0.00000911
 Iteration  3 RMS(Cart)=  0.00000035 RMS(Int)=  0.00000911
 Variable       Old X    -DE/DX   Delta X   Delta X   Delta X     New X
                                 (Linear)    (Quad)   (Total)
    R1        2.83667   0.01757   0.00000   0.01474   0.01474   2.85140
    R2        2.56390  -0.13581   0.00000  -0.16903  -0.16903   2.39487
    R3        2.57857  -0.13304   0.00000  -0.16716  -0.16716   2.41141
    R4        2.57868  -0.13305   0.00000  -0.16719  -0.16719   2.41149
    R5        2.33141  -0.01423   0.00000  -0.00555  -0.00555   2.32586
    R6        2.85456   0.04701   0.00000   0.04021   0.04021   2.89477
    R7        2.28858   0.01390   0.00000   0.00496   0.00496   2.29354
    R8        2.55227   0.02768   0.00000   0.01596   0.01596   2.56823
    R9        1.86568  -0.00193   0.00000  -0.00119  -0.00119   1.86449
    A1        2.02957  -0.01625   0.00000  -0.02056  -0.02059   2.00898
    A2        1.94243   0.00015   0.00000   0.00034   0.00032   1.94275
    A3        1.94238   0.00015   0.00000   0.00034   0.00033   1.94271
    A4        1.84695   0.00817   0.00000   0.00989   0.00986   1.85681
    A5        1.84690   0.00818   0.00000   0.00989   0.00987   1.85676
    A6        1.84305   0.00168   0.00000   0.00274   0.00274   1.84579
    A7        2.21664  -0.01469   0.00000  -0.01442  -0.01442   2.20222
    A8        2.03922   0.00761   0.00000   0.00747   0.00747   2.04669
    A9        2.02732   0.00708   0.00000   0.00695   0.00695   2.03428
   A10        2.18088  -0.00226   0.00000  -0.00222  -0.00222   2.17865
   A11        1.92576   0.01977   0.00000   0.01941   0.01941   1.94517
   A12        2.17655  -0.01750   0.00000  -0.01719  -0.01719   2.15937
   A13        1.93023  -0.03379   0.00000  -0.04209  -0.04209   1.88814
    D1       -3.14151  -0.00000   0.00000  -0.00001  -0.00001  -3.14152
    D2        0.00001  -0.00000   0.00000  -0.00000  -0.00000   0.00001
    D3        1.02533   0.00114   0.00000   0.00193   0.00192   1.02726
    D4       -2.11633   0.00115   0.00000   0.00194   0.00193  -2.11440
    D5       -1.02529  -0.00114   0.00000  -0.00194  -0.00193  -1.02721
    D6        2.11624  -0.00114   0.00000  -0.00193  -0.00192   2.11432
    D7        0.00001  -0.00000   0.00000  -0.00001  -0.00001  -0.00000
    D8        3.14151   0.00000   0.00000   0.00001   0.00001   3.14152
    D9        3.14154  -0.00000   0.00000  -0.00000  -0.00000   3.14153
   D10       -0.00014   0.00000   0.00000   0.00001   0.00001  -0.00013
   D11        0.00015  -0.00000   0.00000  -0.00001  -0.00001   0.00014
   D12       -3.14153   0.00000   0.00000   0.00000   0.00000  -3.14153
         Item               Value     Threshold  Converged?
 Maximum Force            0.135805     0.000450     NO 
 RMS     Force            0.042045     0.000300     NO 
 Maximum Displacement     0.132547     0.001800     NO 
 RMS     Displacement     0.049629     0.001200     NO 
 Predicted change in Energy=-6.574198D-02
 GradGradGradGradGradGradGradGradGradGradGradGradGradGradGradGradGradGrad

                          Input orientation:                          
 ---------------------------------------------------------------------
 Center     Atomic      Atomic             Coordinates (Angstroms)
 Number     Number       Type             X           Y           Z
 ---------------------------------------------------------------------
      1          6           0        0.952799    0.002646   -0.141897
      2          6           0        0.456052   -1.153864   -0.974064
      3          8           0       -0.254370   -2.079090   -0.581500
      4          6           0        0.870811   -1.186835   -2.448322
      5          8           0        1.566507   -0.353736   -2.991457
      6          8           0        0.360448   -2.274255   -3.083982
      7          1           0        1.674086    0.840334   -0.761654
      8          1           0        1.644596   -0.403479    0.850482
      9          1           0       -0.016959    0.663719    0.359097
     10          1           0       -0.166270   -2.793540   -2.431003
 ---------------------------------------------------------------------
                    Distance matrix (angstroms):
                    1          2          3          4          5
     1  C    0.000000
     2  C    1.508898   0.000000
     3  O    2.446248   1.230791   0.000000
     4  C    2.596379   1.531845   2.355244   0.000000
     5  O    2.936604   2.437866   3.478553   1.213690   0.000000
     6  O    3.767097   2.390852   2.584281   1.359050   2.269699
     7  H    1.267310   2.346391   3.503489   2.756722   2.531679
     8  H    1.276062   2.303189   2.909349   3.477714   3.843054
     9  H    1.276105   2.303186   2.909311   3.477685   3.843019
    10  H    3.782985   2.280020   1.984656   1.912416   3.044547
                    6          7          8          9         10
     6  O    0.000000
     7  H    4.101161   0.000000
     8  H    4.541898   2.036399   0.000000
     9  H    4.541908   2.036396   2.034978   0.000000
    10  H    0.986646   4.402122   4.445196   4.445176   0.000000
 Stoichiometry    C3H4O3
 Framework group  C1[X(C3H4O3)]
 Deg. of freedom    24
 Full point group                 C1      NOp   1
 Largest Abelian subgroup         C1      NOp   1
 Largest concise Abelian subgroup C1      NOp   1
                         Standard orientation:                         
 ---------------------------------------------------------------------
 Center     Atomic      Atomic             Coordinates (Angstroms)
 Number     Number       Type             X           Y           Z
 ---------------------------------------------------------------------
      1          6           0       -1.825384    0.656199    0.000040
      2          6           0       -0.655917   -0.297280    0.000014
      3          8           0       -0.720611   -1.526370   -0.000043
      4          6           0        0.748423    0.314583   -0.000022
      5          8           0        0.985934    1.504807   -0.000033
      6          8           0        1.709287   -0.646540    0.000051
      7          1           0       -1.516973    1.885409    0.000016
      8          1           0       -2.573345    0.472705    1.017496
      9          1           0       -2.573332    0.472713   -1.017482
     10          1           0        1.264045   -1.527011   -0.000017
 ---------------------------------------------------------------------
 Rotational constants (GHZ):           4.9508410           3.1668399           1.9949954
 Standard basis: STO-3G (5D, 7F)
 There are    34 symmetry adapted cartesian basis functions of A   symmetry.
 There are    34 symmetry adapted basis functions of A   symmetry.
    34 basis functions,   102 primitive gaussians,    34 cartesian basis functions
    23 alpha electrons       23 beta electrons
       nuclear repulsion energy       226.3253591187 Hartrees.
 NAtoms=   10 NActive=   10 NUniq=   10 SFac= 1.00D+00 NAtFMM=   60 NAOKFM=F Big=F
 Integral buffers will be    131072 words long.
 Raffenetti 1 integral format.
 Two-electron integral symmetry is turned on.
 One-electron integrals computed using PRISM.
 NBasis=    34 RedAO= T EigKep=  2.37D-01  NBF=    34
 NBsUse=    34 1.00D-06 EigRej= -1.00D+00 NBFU=    34
 Initial guess from the checkpoint file:  "Pyruvate-d3_roughopt.chk"
 B after Tr=     0.000000    0.000000   -0.000000
         Rot=    0.999953   -0.000000   -0.000000    0.009739 Ang=  -1.12 deg.
 ExpMin= 1.69D-01 ExpMax= 1.31D+02 ExpMxC= 1.31D+02 IAcc=3 IRadAn=         5 AccDes= 0.00D+00
 Harris functional with IExCor=  205 and IRadAn=       5 diagonalized for initial guess.
 HarFok:  IExCor=  205 AccDes= 0.00D+00 IRadAn=         5 IDoV= 1 UseB2=F ITyADJ=14
 ICtDFT=  3500011 ScaDFX=  1.000000  1.000000  1.000000  1.000000
 FoFCou: FMM=F IPFlag=           0 FMFlag=      100000 FMFlg1=           0
         NFxFlg=           0 DoJE=T BraDBF=F KetDBF=T FulRan=T
         wScrn=  0.000000 ICntrl=       500 IOpCl=  0 I1Cent=   200000004 NGrid=           0
         NMat0=    1 NMatS0=      1 NMatT0=    0 NMatD0=    1 NMtDS0=    0 NMtDT0=    0
 Petite list used in FoFCou.
 Keep R1 ints in memory in canonical form, NReq=5828988.
 Requested convergence on RMS density matrix=1.00D-08 within 128 cycles.
 Requested convergence on MAX density matrix=1.00D-06.
 Requested convergence on             energy=1.00D-06.
 No special actions if energy rises.
 SCF Done:  E(RHF) =  -335.961268179     A.U. after   12 cycles
            NFock= 12  Conv=0.26D-08     -V/T= 2.0096
 Calling FoFJK, ICntrl=      2127 FMM=F ISym2X=0 I1Cent= 0 IOpClX= 0 NMat=1 NMatS=1 NMatT=0.
 ***** Axes restored to original set *****
 -------------------------------------------------------------------
 Center     Atomic                   Forces (Hartrees/Bohr)
 Number     Number              X              Y              Z
 -------------------------------------------------------------------
      1        6           0.042010644    0.110524184    0.097905384
      2        6          -0.011457269   -0.013162033    0.010119786
      3        8           0.006755247    0.010827724    0.000690083
      4        6           0.002061394    0.004969781    0.003860785
      5        8           0.003857558    0.003188837   -0.006129452
      6        8          -0.002862522   -0.019487085   -0.032652892
      7        1          -0.063251360   -0.077397822    0.045804542
      8        1          -0.059912219    0.031996549   -0.085233271
      9        1           0.080993417   -0.058506567   -0.043566233
     10        1           0.001805110    0.007046431    0.009201269
 -------------------------------------------------------------------
 Cartesian Forces:  Max     0.110524184 RMS     0.045344079

 GradGradGradGradGradGradGradGradGradGradGradGradGradGradGradGradGradGrad
 Berny optimization.
 Using GEDIIS/GDIIS optimizer.
 FormGI is forming the generalized inverse of G from B-inverse, IUseBI=4.
 Internal  Forces:  Max     0.109559056 RMS     0.033573184
 Search for a local minimum.
 Step number   2 out of a maximum of   44
 All quantities printed in internal units (Hartrees-Bohrs-Radians)
 Mixed Optimization -- RFO/linear search
 Update second derivatives using D2CorX and points    1    2
 DE= -6.63D-02 DEPred=-6.57D-02 R= 1.01D+00
 TightC=F SS=  1.41D+00  RLast= 3.00D-01 DXNew= 5.0454D-01 9.0007D-01
 Trust test= 1.01D+00 RLast= 3.00D-01 DXMaxT set to 5.05D-01
 ITU=  1  0
 Use linear search instead of GDIIS.
 Linear search step of   0.600 exceeds DXMaxT=   0.505 but not scaled.
 Quartic linear search produced a step of  2.00000.
 Iteration  1 RMS(Cart)=  0.06483144 RMS(Int)=  0.04050516
 Iteration  2 RMS(Cart)=  0.03966352 RMS(Int)=  0.00006885
 Iteration  3 RMS(Cart)=  0.00005216 RMS(Int)=  0.00005685
 Iteration  4 RMS(Cart)=  0.00000001 RMS(Int)=  0.00005685
 Variable       Old X    -DE/DX   Delta X   Delta X   Delta X     New X
                                 (Linear)    (Quad)   (Total)
    R1        2.85140   0.01324   0.02948   0.00000   0.02948   2.88088
    R2        2.39487  -0.10956  -0.33807   0.00000  -0.33807   2.05680
    R3        2.41141  -0.10895  -0.33433   0.00000  -0.33433   2.07708
    R4        2.41149  -0.10896  -0.33438   0.00000  -0.33438   2.07711
    R5        2.32586  -0.01182  -0.01109   0.00000  -0.01109   2.31476
    R6        2.89477   0.02616   0.08041   0.00000   0.08041   2.97518
    R7        2.29354   0.00714   0.00992   0.00000   0.00992   2.30346
    R8        2.56823   0.02132   0.03192   0.00000   0.03192   2.60015
    R9        1.86449   0.00142  -0.00238   0.00000  -0.00238   1.86211
    A1        2.00898  -0.01391  -0.04118   0.00000  -0.04135   1.96763
    A2        1.94275  -0.00095   0.00065   0.00000   0.00055   1.94331
    A3        1.94271  -0.00094   0.00066   0.00000   0.00056   1.94327
    A4        1.85681   0.00746   0.01973   0.00000   0.01957   1.87638
    A5        1.85676   0.00746   0.01974   0.00000   0.01958   1.87634
    A6        1.84579   0.00274   0.00548   0.00000   0.00547   1.85126
    A7        2.20222  -0.00802  -0.02884   0.00000  -0.02884   2.17337
    A8        2.04669   0.00473   0.01494   0.00000   0.01494   2.06163
    A9        2.03428   0.00329   0.01391   0.00000   0.01391   2.04818
   A10        2.17865  -0.00113  -0.00444   0.00000  -0.00444   2.17421
   A11        1.94517   0.01007   0.03882   0.00000   0.03882   1.98398
   A12        2.15937  -0.00894  -0.03437   0.00000  -0.03437   2.12499
   A13        1.88814  -0.02171  -0.08417   0.00000  -0.08417   1.80397
    D1       -3.14152  -0.00000  -0.00001   0.00000  -0.00001  -3.14153
    D2        0.00001  -0.00000  -0.00000   0.00000  -0.00000   0.00001
    D3        1.02726   0.00110   0.00385   0.00000   0.00379   1.03105
    D4       -2.11440   0.00111   0.00386   0.00000   0.00380  -2.11060
    D5       -1.02721  -0.00110  -0.00385   0.00000  -0.00380  -1.03101
    D6        2.11432  -0.00110  -0.00384   0.00000  -0.00378   2.11053
    D7       -0.00000  -0.00000  -0.00002   0.00000  -0.00002  -0.00002
    D8        3.14152   0.00000   0.00001   0.00000   0.00001   3.14153
    D9        3.14153  -0.00000  -0.00001   0.00000  -0.00001   3.14153
   D10       -0.00013   0.00000   0.00002   0.00000   0.00002  -0.00011
   D11        0.00014  -0.00000  -0.00002   0.00000  -0.00002   0.00012
   D12       -3.14153   0.00000   0.00001   0.00000   0.00001  -3.14152
         Item               Value     Threshold  Converged?
 Maximum Force            0.109559     0.000450     NO 
 RMS     Force            0.033573     0.000300     NO 
 Maximum Displacement     0.266327     0.001800     NO 
 RMS     Displacement     0.099627     0.001200     NO 
 Predicted change in Energy=-8.785253D-02
 GradGradGradGradGradGradGradGradGradGradGradGradGradGradGradGradGradGrad

                          Input orientation:                          
 ---------------------------------------------------------------------
 Center     Atomic      Atomic             Coordinates (Angstroms)
 Number     Number       Type             X           Y           Z
 ---------------------------------------------------------------------
      1          6           0        0.958914    0.030698   -0.101687
      2          6           0        0.457019   -1.137784   -0.942426
      3          8           0       -0.250217   -2.044082   -0.519494
      4          6           0        0.871252   -1.191723   -2.460395
      5          8           0        1.569025   -0.361520   -3.016892
      6          8           0        0.369074   -2.282782   -3.131679
      7          1           0        1.573498    0.725354   -0.671236
      8          1           0        1.558107   -0.318342    0.751105
      9          1           0        0.123975    0.602785    0.326968
     10          1           0       -0.142946   -2.760705   -2.438564
 ---------------------------------------------------------------------
                    Distance matrix (angstroms):
                    1          2          3          4          5
     1  C    0.000000
     2  C    1.524497   0.000000
     3  O    2.437473   1.224921   0.000000
     4  C    2.658100   1.574397   2.398188   0.000000
     5  O    3.004078   2.478417   3.518189   1.218939   0.000000
     6  O    3.857583   2.472161   2.695182   1.375941   2.268106
     7  H    1.088414   2.188916   3.319449   2.714668   2.585231
     8  H    1.099143   2.179891   2.804039   3.398278   3.768260
     9  H    1.099160   2.179876   2.804002   3.398245   3.768216
    10  H    3.803553   2.287413   2.051312   1.868362   3.003563
                    6          7          8          9         10
     6  O    0.000000
     7  H    4.068575   0.000000
     8  H    4.510968   1.764254   0.000000
     9  H    4.510965   1.764242   1.756446   0.000000
    10  H    0.985385   4.268751   4.362649   4.362622   0.000000
 Stoichiometry    C3H4O3
 Framework group  C1[X(C3H4O3)]
 Deg. of freedom    24
 Full point group                 C1      NOp   1
 Largest Abelian subgroup         C1      NOp   1
 Largest concise Abelian subgroup C1      NOp   1
                         Standard orientation:                         
 ---------------------------------------------------------------------
 Center     Atomic      Atomic             Coordinates (Angstroms)
 Number     Number       Type             X           Y           Z
 ---------------------------------------------------------------------
      1          6           0       -1.848469    0.711239    0.000034
      2          6           0       -0.691554   -0.281553    0.000011
      3          8           0       -0.821908   -1.499518   -0.000040
      4          6           0        0.775864    0.288897   -0.000014
      5          8           0        1.056899    1.474996   -0.000034
      6          8           0        1.747391   -0.685449    0.000047
      7          1           0       -1.513985    1.746983    0.000022
      8          1           0       -2.494697    0.572448    0.878238
      9          1           0       -2.494677    0.572460   -0.878208
     10          1           0        1.229262   -1.523617   -0.000022
 ---------------------------------------------------------------------
 Rotational constants (GHZ):           5.0975858           3.0477568           1.9531772
 Standard basis: STO-3G (5D, 7F)
 There are    34 symmetry adapted cartesian basis functions of A   symmetry.
 There are    34 symmetry adapted basis functions of A   symmetry.
    34 basis functions,   102 primitive gaussians,    34 cartesian basis functions
    23 alpha electrons       23 beta electrons
       nuclear repulsion energy       225.6505101999 Hartrees.
 NAtoms=   10 NActive=   10 NUniq=   10 SFac= 1.00D+00 NAtFMM=   60 NAOKFM=F Big=F
 Integral buffers will be    131072 words long.
 Raffenetti 1 integral format.
 Two-electron integral symmetry is turned on.
 One-electron integrals computed using PRISM.
 NBasis=    34 RedAO= T EigKep=  2.20D-01  NBF=    34
 NBsUse=    34 1.00D-06 EigRej= -1.00D+00 NBFU=    34
 Initial guess from the checkpoint file:  "Pyruvate-d3_roughopt.chk"
 B after Tr=    -0.000000    0.000000   -0.000000
         Rot=    0.999878   -0.000000   -0.000000    0.015614 Ang=  -1.79 deg.
 ExpMin= 1.69D-01 ExpMax= 1.31D+02 ExpMxC= 1.31D+02 IAcc=3 IRadAn=         5 AccDes= 0.00D+00
 Harris functional with IExCor=  205 and IRadAn=       5 diagonalized for initial guess.
 HarFok:  IExCor=  205 AccDes= 0.00D+00 IRadAn=         5 IDoV= 1 UseB2=F ITyADJ=14
 ICtDFT=  3500011 ScaDFX=  1.000000  1.000000  1.000000  1.000000
 FoFCou: FMM=F IPFlag=           0 FMFlag=      100000 FMFlg1=           0
         NFxFlg=           0 DoJE=T BraDBF=F KetDBF=T FulRan=T
         wScrn=  0.000000 ICntrl=       500 IOpCl=  0 I1Cent=   200000004 NGrid=           0
         NMat0=    1 NMatS0=      1 NMatT0=    0 NMatD0=    1 NMtDS0=    0 NMtDT0=    0
 Petite list used in FoFCou.
 Keep R1 ints in memory in canonical form, NReq=5829004.
 Requested convergence on RMS density matrix=1.00D-08 within 128 cycles.
 Requested convergence on MAX density matrix=1.00D-06.
 Requested convergence on             energy=1.00D-06.
 No special actions if energy rises.
 SCF Done:  E(RHF) =  -336.030610116     A.U. after   12 cycles
            NFock= 12  Conv=0.61D-08     -V/T= 2.0093
 Calling FoFJK, ICntrl=      2127 FMM=F ISym2X=0 I1Cent= 0 IOpClX= 0 NMat=1 NMatS=1 NMatT=0.
 ***** Axes restored to original set *****
 -------------------------------------------------------------------
 Center     Atomic                   Forces (Hartrees/Bohr)
 Number     Number              X              Y              Z
 -------------------------------------------------------------------
      1        6           0.005198721    0.018775643    0.023132195
      2        6          -0.003936899   -0.008984195   -0.006223752
      3        8           0.003715242    0.003822834   -0.004249159
      4        6           0.008551429    0.014752616    0.003151564
      5        8          -0.003104725   -0.002466023    0.005137235
      6        8          -0.002159063   -0.004932784   -0.003424198
      7        1          -0.002431606   -0.005860553   -0.004492977
      8        1          -0.005527865   -0.001611052   -0.009689584
      9        1           0.004294636   -0.007920913   -0.006790082
     10        1          -0.004599870   -0.005575573    0.003448758
 -------------------------------------------------------------------
 Cartesian Forces:  Max     0.023132195 RMS     0.007870871

 GradGradGradGradGradGradGradGradGradGradGradGradGradGradGradGradGradGrad
 Berny optimization.
 Using GEDIIS/GDIIS optimizer.
 FormGI is forming the generalized inverse of G from B-inverse, IUseBI=4.
 Internal  Forces:  Max     0.010787477 RMS     0.005061740
 Search for a local minimum.
 Step number   3 out of a maximum of   44
 All quantities printed in internal units (Hartrees-Bohrs-Radians)
 Mixed Optimization -- RFO/linear search
 Update second derivatives using D2CorX and points    2    3
 ITU=  0  1  0
 Use linear search instead of GDIIS.
     Eigenvalues ---    0.00626   0.00706   0.00751   0.01175   0.02345
     Eigenvalues ---    0.06938   0.07193   0.15708   0.15822   0.15928
     Eigenvalues ---    0.16000   0.16000   0.16002   0.24626   0.24992
     Eigenvalues ---    0.25000   0.25000   0.29317   0.32138   0.32619
     Eigenvalues ---    0.50064   0.54533   0.89421   0.99448
 RFO step:  Lambda=-3.07179760D-03 EMin= 6.26139059D-03
 Quartic linear search produced a step of  0.04434.
 Iteration  1 RMS(Cart)=  0.02892791 RMS(Int)=  0.00067523
 Iteration  2 RMS(Cart)=  0.00061355 RMS(Int)=  0.00030495
 Iteration  3 RMS(Cart)=  0.00000051 RMS(Int)=  0.00030495
 Variable       Old X    -DE/DX   Delta X   Delta X   Delta X     New X
                                 (Linear)    (Quad)   (Total)
    R1        2.88088   0.00429   0.00131   0.01173   0.01304   2.89392
    R2        2.05680  -0.00276  -0.01499   0.02081   0.00582   2.06262
    R3        2.07708  -0.01002  -0.01482  -0.02629  -0.04112   2.03596
    R4        2.07711  -0.01003  -0.01482  -0.02638  -0.04120   2.03591
    R5        2.31476  -0.00644  -0.00049  -0.00695  -0.00744   2.30732
    R6        2.97518  -0.00842   0.00357  -0.03214  -0.02858   2.94660
    R7        2.30346  -0.00580   0.00044  -0.00634  -0.00590   2.29756
    R8        2.60015   0.01079   0.00142   0.01870   0.02012   2.62027
    R9        1.86211   0.00752  -0.00011   0.01549   0.01538   1.87749
    A1        1.96763  -0.00822  -0.00183  -0.05166  -0.05437   1.91325
    A2        1.94331  -0.00419   0.00002  -0.02465  -0.02513   1.91818
    A3        1.94327  -0.00418   0.00002  -0.02461  -0.02510   1.91817
    A4        1.87638   0.00616   0.00087   0.03334   0.03335   1.90973
    A5        1.87634   0.00616   0.00087   0.03339   0.03339   1.90973
    A6        1.85126   0.00572   0.00024   0.04327   0.04337   1.89464
    A7        2.17337   0.00366  -0.00128   0.01689   0.01561   2.18898
    A8        2.06163  -0.00216   0.00066  -0.00991  -0.00925   2.05238
    A9        2.04818  -0.00151   0.00062  -0.00698  -0.00636   2.04182
   A10        2.17421  -0.00071  -0.00020  -0.00267  -0.00287   2.17135
   A11        1.98398  -0.00528   0.00172  -0.02403  -0.02231   1.96167
   A12        2.12499   0.00599  -0.00152   0.02670   0.02518   2.15017
   A13        1.80397   0.00513  -0.00373   0.04092   0.03719   1.84116
    D1       -3.14153  -0.00000  -0.00000  -0.00011  -0.00011   3.14154
    D2        0.00001  -0.00000  -0.00000   0.00004   0.00004   0.00005
    D3        1.03105   0.00086   0.00017   0.01105   0.01093   1.04197
    D4       -2.11060   0.00086   0.00017   0.01120   0.01108  -2.09952
    D5       -1.03101  -0.00086  -0.00017  -0.01118  -0.01106  -1.04207
    D6        2.11053  -0.00086  -0.00017  -0.01103  -0.01091   2.09962
    D7       -0.00002  -0.00000  -0.00000  -0.00012  -0.00012  -0.00014
    D8        3.14153   0.00000   0.00000   0.00006   0.00006   3.14159
    D9        3.14153  -0.00000  -0.00000   0.00002   0.00002   3.14154
   D10       -0.00011   0.00000   0.00000   0.00020   0.00020   0.00009
   D11        0.00012  -0.00000  -0.00000  -0.00013  -0.00013  -0.00001
   D12       -3.14152   0.00000   0.00000   0.00005   0.00005  -3.14147
         Item               Value     Threshold  Converged?
 Maximum Force            0.010787     0.000450     NO 
 RMS     Force            0.005062     0.000300     NO 
 Maximum Displacement     0.072410     0.001800     NO 
 RMS     Displacement     0.029091     0.001200     NO 
 Predicted change in Energy=-1.802684D-03
 GradGradGradGradGradGradGradGradGradGradGradGradGradGradGradGradGradGrad

                          Input orientation:                          
 ---------------------------------------------------------------------
 Center     Atomic      Atomic             Coordinates (Angstroms)
 Number     Number       Type             X           Y           Z
 ---------------------------------------------------------------------
      1          6           0        0.961354    0.038529   -0.093058
      2          6           0        0.459120   -1.133723   -0.940855
      3          8           0       -0.245714   -2.046398   -0.539567
      4          6           0        0.878965   -1.171383   -2.442072
      5          8           0        1.576182   -0.334191   -2.981707
      6          8           0        0.366408   -2.275249   -3.106441
      7          1           0        1.570086    0.702408   -0.709554
      8          1           0        1.552976   -0.329962    0.728500
      9          1           0        0.124662    0.587455    0.306094
     10          1           0       -0.156338   -2.775587   -2.425640
 ---------------------------------------------------------------------
                    Distance matrix (angstroms):
                    1          2          3          4          5
     1  C    0.000000
     2  C    1.531396   0.000000
     3  O    2.450164   1.220982   0.000000
     4  C    2.643585   1.559275   2.376989   0.000000
     5  O    2.976782   2.460113   3.494997   1.215817   0.000000
     6  O    3.845518   2.449783   2.648756   1.386586   2.290594
     7  H    1.091493   2.158500   3.298781   2.643930   2.497450
     8  H    1.077385   2.151581   2.790955   3.348851   3.710282
     9  H    1.077356   2.151557   2.790968   3.348866   3.710253
    10  H    3.822227   2.297627   2.024099   1.909343   3.044874
                    6          7          8          9         10
     6  O    0.000000
     7  H    4.007537   0.000000
     8  H    4.460813   1.770333   0.000000
     9  H    4.460819   1.770312   1.749332   0.000000
    10  H    0.993525   4.245226   4.341824   4.341818   0.000000
 Stoichiometry    C3H4O3
 Framework group  C1[X(C3H4O3)]
 Deg. of freedom    24
 Full point group                 C1      NOp   1
 Largest Abelian subgroup         C1      NOp   1
 Largest concise Abelian subgroup C1      NOp   1
                         Standard orientation:                         
 ---------------------------------------------------------------------
 Center     Atomic      Atomic             Coordinates (Angstroms)
 Number     Number       Type             X           Y           Z
 ---------------------------------------------------------------------
      1          6           0       -1.858308    0.682532    0.000006
      2          6           0       -0.678500   -0.293802   -0.000027
      3          8           0       -0.767698   -1.511522   -0.000004
      4          6           0        0.758954    0.310403    0.000041
      5          8           0        1.003646    1.501342   -0.000021
      6          8           0        1.742730   -0.666739    0.000007
      7          1           0       -1.485216    1.708280    0.000025
      8          1           0       -2.466687    0.522632    0.874687
      9          1           0       -2.466688    0.522670   -0.874645
     10          1           0        1.256287   -1.533032   -0.000041
 ---------------------------------------------------------------------
 Rotational constants (GHZ):           5.0621465           3.1263065           1.9793547
 Standard basis: STO-3G (5D, 7F)
 There are    34 symmetry adapted cartesian basis functions of A   symmetry.
 There are    34 symmetry adapted basis functions of A   symmetry.
    34 basis functions,   102 primitive gaussians,    34 cartesian basis functions
    23 alpha electrons       23 beta electrons
       nuclear repulsion energy       226.4815723788 Hartrees.
 NAtoms=   10 NActive=   10 NUniq=   10 SFac= 1.00D+00 NAtFMM=   60 NAOKFM=F Big=F
 Integral buffers will be    131072 words long.
 Raffenetti 1 integral format.
 Two-electron integral symmetry is turned on.
 One-electron integrals computed using PRISM.
 NBasis=    34 RedAO= T EigKep=  2.16D-01  NBF=    34
 NBsUse=    34 1.00D-06 EigRej= -1.00D+00 NBFU=    34
 Initial guess from the checkpoint file:  "Pyruvate-d3_roughopt.chk"
 B after Tr=    -0.000000   -0.000000    0.000000
         Rot=    0.999949   -0.000001   -0.000000   -0.010102 Ang=  -1.16 deg.
 ExpMin= 1.69D-01 ExpMax= 1.31D+02 ExpMxC= 1.31D+02 IAcc=3 IRadAn=         5 AccDes= 0.00D+00
 Harris functional with IExCor=  205 and IRadAn=       5 diagonalized for initial guess.
 HarFok:  IExCor=  205 AccDes= 0.00D+00 IRadAn=         5 IDoV= 1 UseB2=F ITyADJ=14
 ICtDFT=  3500011 ScaDFX=  1.000000  1.000000  1.000000  1.000000
 FoFCou: FMM=F IPFlag=           0 FMFlag=      100000 FMFlg1=           0
         NFxFlg=           0 DoJE=T BraDBF=F KetDBF=T FulRan=T
         wScrn=  0.000000 ICntrl=       500 IOpCl=  0 I1Cent=   200000004 NGrid=           0
         NMat0=    1 NMatS0=      1 NMatT0=    0 NMatD0=    1 NMtDS0=    0 NMtDT0=    0
 Petite list used in FoFCou.
 Keep R1 ints in memory in canonical form, NReq=5829069.
 Requested convergence on RMS density matrix=1.00D-08 within 128 cycles.
 Requested convergence on MAX density matrix=1.00D-06.
 Requested convergence on             energy=1.00D-06.
 No special actions if energy rises.
 SCF Done:  E(RHF) =  -336.031534125     A.U. after   11 cycles
            NFock= 11  Conv=0.86D-08     -V/T= 2.0092
 Calling FoFJK, ICntrl=      2127 FMM=F ISym2X=0 I1Cent= 0 IOpClX= 0 NMat=1 NMatS=1 NMatT=0.
 ***** Axes restored to original set *****
 -------------------------------------------------------------------
 Center     Atomic                   Forces (Hartrees/Bohr)
 Number     Number              X              Y              Z
 -------------------------------------------------------------------
      1        6           0.005570282    0.003289634   -0.011620181
      2        6          -0.000579452   -0.001007057   -0.000152767
      3        8          -0.001384237   -0.001248521    0.001946456
      4        6          -0.002563317   -0.003177408    0.001678999
      5        8          -0.000676275   -0.001798505   -0.001588212
      6        8           0.001039758   -0.000700557   -0.005021189
      7        1          -0.003430591   -0.003756756    0.003440489
      8        1           0.004935968   -0.002436327    0.006701134
      9        1          -0.006394223    0.004843447    0.003367771
     10        1           0.003482087    0.005992049    0.001247499
 -------------------------------------------------------------------
 Cartesian Forces:  Max     0.011620181 RMS     0.003984118

 GradGradGradGradGradGradGradGradGradGradGradGradGradGradGradGradGradGrad
 Berny optimization.
 Using GEDIIS/GDIIS optimizer.
 FormGI is forming the generalized inverse of G from B-inverse, IUseBI=4.
 Internal  Forces:  Max     0.010887315 RMS     0.003438447
 Search for a local minimum.
 Step number   4 out of a maximum of   44
 All quantities printed in internal units (Hartrees-Bohrs-Radians)
 Mixed Optimization -- RFO/linear search
 Update second derivatives using D2CorX and points    3    4
 DE= -9.24D-04 DEPred=-1.80D-03 R= 5.13D-01
 TightC=F SS=  1.41D+00  RLast= 1.30D-01 DXNew= 8.4853D-01 3.8934D-01
 Trust test= 5.13D-01 RLast= 1.30D-01 DXMaxT set to 5.05D-01
 ITU=  1  0  1  0
 Use linear search instead of GDIIS.
     Eigenvalues ---    0.00626   0.00707   0.00751   0.01188   0.02345
     Eigenvalues ---    0.07332   0.07457   0.12863   0.15708   0.15969
     Eigenvalues ---    0.16000   0.16000   0.21005   0.24797   0.24992
     Eigenvalues ---    0.25000   0.27392   0.31584   0.32407   0.37377
     Eigenvalues ---    0.51215   0.57466   0.89906   0.98898
 RFO step:  Lambda=-6.43949092D-04 EMin= 6.26139074D-03
 Quartic linear search produced a step of -0.31546.
 Iteration  1 RMS(Cart)=  0.01468388 RMS(Int)=  0.00022792
 Iteration  2 RMS(Cart)=  0.00018369 RMS(Int)=  0.00008975
 Iteration  3 RMS(Cart)=  0.00000001 RMS(Int)=  0.00008975
 Variable       Old X    -DE/DX   Delta X   Delta X   Delta X     New X
                                 (Linear)    (Quad)   (Total)
    R1        2.89392   0.00275  -0.00411   0.01253   0.00842   2.90234
    R2        2.06262  -0.00614  -0.00184  -0.02899  -0.03082   2.03180
    R3        2.03596   0.00865   0.01297   0.01074   0.02371   2.05967
    R4        2.03591   0.00868   0.01300   0.01082   0.02382   2.05972
    R5        2.30732   0.00237   0.00235  -0.00189   0.00046   2.30778
    R6        2.94660   0.00388   0.00901  -0.00541   0.00360   2.95021
    R7        2.29756  -0.00092   0.00186  -0.00356  -0.00170   2.29586
    R8        2.62027  -0.00408  -0.00635   0.00501  -0.00134   2.61893
    R9        1.87749  -0.00399  -0.00485   0.00220  -0.00265   1.87484
    A1        1.91325  -0.00039   0.01715  -0.03089  -0.01348   1.89977
    A2        1.91818   0.00073   0.00793  -0.00966  -0.00158   1.91659
    A3        1.91817   0.00074   0.00792  -0.00963  -0.00156   1.91661
    A4        1.90973  -0.00031  -0.01052   0.01491   0.00465   1.91437
    A5        1.90973  -0.00031  -0.01053   0.01493   0.00466   1.91439
    A6        1.89464  -0.00045  -0.01368   0.02110   0.00747   1.90210
    A7        2.18898  -0.00097  -0.00492   0.00497   0.00004   2.18903
    A8        2.05238  -0.00100   0.00292  -0.00725  -0.00433   2.04804
    A9        2.04182   0.00198   0.00201   0.00229   0.00429   2.04612
   A10        2.17135   0.00125   0.00090   0.00194   0.00285   2.17419
   A11        1.96167   0.00283   0.00704  -0.00323   0.00381   1.96548
   A12        2.15017  -0.00407  -0.00794   0.00128  -0.00666   2.14351
   A13        1.84116  -0.01089  -0.01173  -0.02873  -0.04046   1.80070
    D1        3.14154   0.00000   0.00003   0.00010   0.00014  -3.14151
    D2        0.00005  -0.00000  -0.00001  -0.00013  -0.00014  -0.00009
    D3        1.04197   0.00018  -0.00345   0.00713   0.00377   1.04574
    D4       -2.09952   0.00017  -0.00349   0.00690   0.00349  -2.09603
    D5       -1.04207  -0.00017   0.00349  -0.00688  -0.00348  -1.04555
    D6        2.09962  -0.00018   0.00344  -0.00711  -0.00375   2.09587
    D7       -0.00014   0.00001   0.00004   0.00028   0.00032   0.00018
    D8        3.14159  -0.00000  -0.00002  -0.00008  -0.00010   3.14149
    D9        3.14154   0.00000  -0.00000   0.00007   0.00007  -3.14158
   D10        0.00009  -0.00001  -0.00006  -0.00029  -0.00036  -0.00027
   D11       -0.00001   0.00000   0.00004   0.00011   0.00015   0.00014
   D12       -3.14147  -0.00001  -0.00001  -0.00025  -0.00026   3.14145
         Item               Value     Threshold  Converged?
 Maximum Force            0.010887     0.000450     NO 
 RMS     Force            0.003438     0.000300     NO 
 Maximum Displacement     0.048179     0.001800     NO 
 RMS     Displacement     0.014704     0.001200     NO 
 Predicted change in Energy=-5.788830D-04
 GradGradGradGradGradGradGradGradGradGradGradGradGradGradGradGradGradGrad

                          Input orientation:                          
 ---------------------------------------------------------------------
 Center     Atomic      Atomic             Coordinates (Angstroms)
 Number     Number       Type             X           Y           Z
 ---------------------------------------------------------------------
      1          6           0        0.962238    0.039177   -0.094548
      2          6           0        0.456587   -1.138042   -0.941492
      3          8           0       -0.248516   -2.049502   -0.537184
      4          6           0        0.878093   -1.173492   -2.444277
      5          8           0        1.574829   -0.337748   -2.984754
      6          8           0        0.369284   -2.274589   -3.114614
      7          1           0        1.559195    0.682683   -0.715485
      8          1           0        1.564479   -0.333553    0.733902
      9          1           0        0.115613    0.597058    0.305459
     10          1           0       -0.144102   -2.750092   -2.411307
 ---------------------------------------------------------------------
                    Distance matrix (angstroms):
                    1          2          3          4          5
     1  C    0.000000
     2  C    1.535852   0.000000
     3  O    2.454472   1.221226   0.000000
     4  C    2.645538   1.561181   2.381941   0.000000
     5  O    2.978360   2.462896   3.499326   1.214917   0.000000
     6  O    3.850442   2.453940   2.659978   1.385877   2.285072
     7  H    1.075183   2.140529   3.280922   2.626406   2.488194
     8  H    1.089932   2.163694   2.801266   3.358190   3.718673
     9  H    1.089959   2.163729   2.801235   3.358165   3.718693
    10  H    3.790960   2.262717   2.003513   1.879265   3.017112
                    6          7          8          9         10
     6  O    0.000000
     7  H    3.989633   0.000000
     8  H    4.472939   1.770165   0.000000
     9  H    4.472986   1.770195   1.774490   0.000000
    10  H    0.992123   4.190582   4.318709   4.318759   0.000000
 Stoichiometry    C3H4O3
 Framework group  C1[X(C3H4O3)]
 Deg. of freedom    24
 Full point group                 C1      NOp   1
 Largest Abelian subgroup         C1      NOp   1
 Largest concise Abelian subgroup C1      NOp   1
                         Standard orientation:                         
 ---------------------------------------------------------------------
 Center     Atomic      Atomic             Coordinates (Angstroms)
 Number     Number       Type             X           Y           Z
 ---------------------------------------------------------------------
      1          6           0       -1.855056    0.696375    0.000032
      2          6           0       -0.680549   -0.293260    0.000036
      3          8           0       -0.780517   -1.510388   -0.000048
      4          6           0        0.761394    0.305144   -0.000092
      5          8           0        1.014689    1.493363   -0.000013
      6          8           0        1.743953   -0.672215    0.000057
      7          1           0       -1.465048    1.698329    0.000031
      8          1           0       -2.468816    0.541294    0.887275
      9          1           0       -2.468857    0.541285   -0.887215
     10          1           0        1.222986   -1.516550    0.000077
 ---------------------------------------------------------------------
 Rotational constants (GHZ):           5.0660925           3.1147391           1.9766912
 Standard basis: STO-3G (5D, 7F)
 There are    34 symmetry adapted cartesian basis functions of A   symmetry.
 There are    34 symmetry adapted basis functions of A   symmetry.
    34 basis functions,   102 primitive gaussians,    34 cartesian basis functions
    23 alpha electrons       23 beta electrons
       nuclear repulsion energy       226.3981221846 Hartrees.
 NAtoms=   10 NActive=   10 NUniq=   10 SFac= 1.00D+00 NAtFMM=   60 NAOKFM=F Big=F
 Integral buffers will be    131072 words long.
 Raffenetti 1 integral format.
 Two-electron integral symmetry is turned on.
 One-electron integrals computed using PRISM.
 NBasis=    34 RedAO= T EigKep=  2.17D-01  NBF=    34
 NBsUse=    34 1.00D-06 EigRej= -1.00D+00 NBFU=    34
 Initial guess from the checkpoint file:  "Pyruvate-d3_roughopt.chk"
 B after Tr=    -0.000000   -0.000000    0.000000
         Rot=    0.999996    0.000001   -0.000000    0.002972 Ang=   0.34 deg.
 ExpMin= 1.69D-01 ExpMax= 1.31D+02 ExpMxC= 1.31D+02 IAcc=3 IRadAn=         5 AccDes= 0.00D+00
 Harris functional with IExCor=  205 and IRadAn=       5 diagonalized for initial guess.
 HarFok:  IExCor=  205 AccDes= 0.00D+00 IRadAn=         5 IDoV= 1 UseB2=F ITyADJ=14
 ICtDFT=  3500011 ScaDFX=  1.000000  1.000000  1.000000  1.000000
 FoFCou: FMM=F IPFlag=           0 FMFlag=      100000 FMFlg1=           0
         NFxFlg=           0 DoJE=T BraDBF=F KetDBF=T FulRan=T
         wScrn=  0.000000 ICntrl=       500 IOpCl=  0 I1Cent=   200000004 NGrid=           0
         NMat0=    1 NMatS0=      1 NMatT0=    0 NMatD0=    1 NMtDS0=    0 NMtDT0=    0
 Petite list used in FoFCou.
 Keep R1 ints in memory in canonical form, NReq=5829180.
 Requested convergence on RMS density matrix=1.00D-08 within 128 cycles.
 Requested convergence on MAX density matrix=1.00D-06.
 Requested convergence on             energy=1.00D-06.
 No special actions if energy rises.
 SCF Done:  E(RHF) =  -336.031824961     A.U. after   13 cycles
            NFock= 13  Conv=0.37D-08     -V/T= 2.0092
 Calling FoFJK, ICntrl=      2127 FMM=F ISym2X=0 I1Cent= 0 IOpClX= 0 NMat=1 NMatS=1 NMatT=0.
 ***** Axes restored to original set *****
 -------------------------------------------------------------------
 Center     Atomic                   Forces (Hartrees/Bohr)
 Number     Number              X              Y              Z
 -------------------------------------------------------------------
      1        6          -0.006182455   -0.007138314    0.005365372
      2        6          -0.000041792    0.000976651    0.002114943
      3        8          -0.000641829   -0.000981676    0.000082058
      4        6          -0.000132857   -0.000814579   -0.001144717
      5        8           0.000795719    0.000950971   -0.000683397
      6        8          -0.000440505    0.000061091    0.001578966
      7        1           0.005409626    0.006586795   -0.003990788
      8        1          -0.001913837    0.002043405   -0.001739332
      9        1           0.003091085   -0.001174981   -0.000276599
     10        1           0.000056844   -0.000509362   -0.001306505
 -------------------------------------------------------------------
 Cartesian Forces:  Max     0.007138314 RMS     0.002851227

 GradGradGradGradGradGradGradGradGradGradGradGradGradGradGradGradGradGrad
 Berny optimization.
 Using GEDIIS/GDIIS optimizer.
 FormGI is forming the generalized inverse of G from B-inverse, IUseBI=4.
 Internal  Forces:  Max     0.009250496 RMS     0.001950997
 Search for a local minimum.
 Step number   5 out of a maximum of   44
 All quantities printed in internal units (Hartrees-Bohrs-Radians)
 Mixed Optimization -- RFO/linear search
 Update second derivatives using D2CorX and points    3    4    5
 DE= -2.91D-04 DEPred=-5.79D-04 R= 5.02D-01
 TightC=F SS=  1.41D+00  RLast= 6.52D-02 DXNew= 8.4853D-01 1.9569D-01
 Trust test= 5.02D-01 RLast= 6.52D-02 DXMaxT set to 5.05D-01
 ITU=  1  1  0  1  0
 Use linear search instead of GDIIS.
     Eigenvalues ---    0.00626   0.00706   0.00751   0.01184   0.02345
     Eigenvalues ---    0.07469   0.07563   0.12756   0.15708   0.16000
     Eigenvalues ---    0.16000   0.17974   0.24480   0.24914   0.24991
     Eigenvalues ---    0.25667   0.31049   0.32032   0.34636   0.41503
     Eigenvalues ---    0.51088   0.58438   0.90013   0.99209
 RFO step:  Lambda=-1.50667686D-04 EMin= 6.26139091D-03
 Quartic linear search produced a step of -0.33097.
 Iteration  1 RMS(Cart)=  0.00638387 RMS(Int)=  0.00002381
 Iteration  2 RMS(Cart)=  0.00003395 RMS(Int)=  0.00000641
 Iteration  3 RMS(Cart)=  0.00000000 RMS(Int)=  0.00000641
 Variable       Old X    -DE/DX   Delta X   Delta X   Delta X     New X
                                 (Linear)    (Quad)   (Total)
    R1        2.90234   0.00002  -0.00279   0.00295   0.00016   2.90250
    R2        2.03180   0.00925   0.01020   0.01402   0.02422   2.05602
    R3        2.05967  -0.00308  -0.00785   0.00035  -0.00750   2.05218
    R4        2.05972  -0.00310  -0.00788   0.00031  -0.00757   2.05216
    R5        2.30778   0.00113  -0.00015   0.00125   0.00109   2.30888
    R6        2.95021   0.00158  -0.00119   0.00584   0.00465   2.95486
    R7        2.29586   0.00141   0.00056   0.00034   0.00090   2.29676
    R8        2.61893   0.00037   0.00044  -0.00131  -0.00086   2.61806
    R9        1.87484  -0.00071   0.00088  -0.00270  -0.00182   1.87302
    A1        1.89977   0.00225   0.00446   0.00533   0.00977   1.90954
    A2        1.91659   0.00087   0.00052   0.00322   0.00373   1.92033
    A3        1.91661   0.00086   0.00052   0.00320   0.00371   1.92032
    A4        1.91437  -0.00126  -0.00154  -0.00304  -0.00459   1.90978
    A5        1.91439  -0.00126  -0.00154  -0.00304  -0.00460   1.90978
    A6        1.90210  -0.00147  -0.00247  -0.00566  -0.00814   1.89397
    A7        2.18903   0.00043  -0.00001  -0.00004  -0.00005   2.18897
    A8        2.04804  -0.00011   0.00143  -0.00151  -0.00008   2.04797
    A9        2.04612  -0.00032  -0.00142   0.00155   0.00013   2.04625
   A10        2.17419  -0.00020  -0.00094   0.00097   0.00003   2.17422
   A11        1.96548   0.00053  -0.00126   0.00404   0.00278   1.96826
   A12        2.14351  -0.00033   0.00220  -0.00502  -0.00281   2.14070
   A13        1.80070   0.00227   0.01339  -0.01264   0.00075   1.80145
    D1       -3.14151  -0.00000  -0.00004  -0.00016  -0.00021   3.14147
    D2       -0.00009   0.00000   0.00005   0.00018   0.00022   0.00013
    D3        1.04574  -0.00037  -0.00125  -0.00166  -0.00292   1.04282
    D4       -2.09603  -0.00036  -0.00116  -0.00133  -0.00249  -2.09852
    D5       -1.04555   0.00036   0.00115   0.00132   0.00247  -1.04307
    D6        2.09587   0.00037   0.00124   0.00166   0.00291   2.09877
    D7        0.00018  -0.00001  -0.00011  -0.00034  -0.00045  -0.00027
    D8        3.14149   0.00001   0.00003   0.00021   0.00025  -3.14145
    D9       -3.14158  -0.00000  -0.00002  -0.00003  -0.00005   3.14156
   D10       -0.00027   0.00001   0.00012   0.00053   0.00064   0.00038
   D11        0.00014  -0.00001  -0.00005  -0.00026  -0.00031  -0.00017
   D12        3.14145   0.00001   0.00009   0.00029   0.00038  -3.14136
         Item               Value     Threshold  Converged?
 Maximum Force            0.009250     0.000450     NO 
 RMS     Force            0.001951     0.000300     NO 
 Maximum Displacement     0.023322     0.001800     NO 
 RMS     Displacement     0.006394     0.001200     NO 
 Predicted change in Energy=-1.715626D-04
 GradGradGradGradGradGradGradGradGradGradGradGradGradGradGradGradGradGrad

                          Input orientation:                          
 ---------------------------------------------------------------------
 Center     Atomic      Atomic             Coordinates (Angstroms)
 Number     Number       Type             X           Y           Z
 ---------------------------------------------------------------------
      1          6           0        0.961013    0.037816   -0.093512
      2          6           0        0.454903   -1.139799   -0.939785
      3          8           0       -0.250359   -2.051485   -0.534519
      4          6           0        0.876901   -1.176129   -2.444969
      5          8           0        1.573681   -0.340268   -2.986276
      6          8           0        0.369382   -2.275712   -3.117819
      7          1           0        1.566631    0.695024   -0.714037
      8          1           0        1.559617   -0.329600    0.734738
      9          1           0        0.120244    0.594885    0.309078
     10          1           0       -0.144313   -2.752833   -2.417199
 ---------------------------------------------------------------------
                    Distance matrix (angstroms):
                    1          2          3          4          5
     1  C    0.000000
     2  C    1.535937   0.000000
     3  O    2.455013   1.221805   0.000000
     4  C    2.647656   1.563643   2.384697   0.000000
     5  O    2.981005   2.465571   3.502356   1.215393   0.000000
     6  O    3.853423   2.457935   2.666044   1.385419   2.283327
     7  H    1.088001   2.157192   3.298029   2.640656   2.496988
     8  H    1.085964   2.163525   2.802127   3.360542   3.721055
     9  H    1.085955   2.163511   2.802192   3.360623   3.721068
    10  H    3.795917   2.267971   2.011869   1.878735   3.015928
                    6          7          8          9         10
     6  O    0.000000
     7  H    4.004603   0.000000
     8  H    4.477299   1.774500   0.000000
     9  H    4.477278   1.774494   1.762854   0.000000
    10  H    0.991158   4.209015   4.325522   4.325482   0.000000
 Stoichiometry    C3H4O3
 Framework group  C1[X(C3H4O3)]
 Deg. of freedom    24
 Full point group                 C1      NOp   1
 Largest Abelian subgroup         C1      NOp   1
 Largest concise Abelian subgroup C1      NOp   1
                         Standard orientation:                         
 ---------------------------------------------------------------------
 Center     Atomic      Atomic             Coordinates (Angstroms)
 Number     Number       Type             X           Y           Z
 ---------------------------------------------------------------------
      1          6           0       -1.855808    0.696952   -0.000041
      2          6           0       -0.682333   -0.294036   -0.000050
      3          8           0       -0.783761   -1.511623    0.000064
      4          6           0        0.762499    0.303827    0.000132
      5          8           0        1.017152    1.492242    0.000011
      6          8           0        1.746448   -0.671485   -0.000074
      7          1           0       -1.469948    1.714232   -0.000035
      8          1           0       -2.471511    0.544267    0.881387
      9          1           0       -2.471501    0.544275   -0.881466
     10          1           0        1.228103   -1.516299   -0.000128
 ---------------------------------------------------------------------
 Rotational constants (GHZ):           5.0622356           3.1063804           1.9720978
 Standard basis: STO-3G (5D, 7F)
 There are    34 symmetry adapted cartesian basis functions of A   symmetry.
 There are    34 symmetry adapted basis functions of A   symmetry.
    34 basis functions,   102 primitive gaussians,    34 cartesian basis functions
    23 alpha electrons       23 beta electrons
       nuclear repulsion energy       226.2174354743 Hartrees.
 NAtoms=   10 NActive=   10 NUniq=   10 SFac= 1.00D+00 NAtFMM=   60 NAOKFM=F Big=F
 Integral buffers will be    131072 words long.
 Raffenetti 1 integral format.
 Two-electron integral symmetry is turned on.
 One-electron integrals computed using PRISM.
 NBasis=    34 RedAO= T EigKep=  2.18D-01  NBF=    34
 NBsUse=    34 1.00D-06 EigRej= -1.00D+00 NBFU=    34
 Initial guess from the checkpoint file:  "Pyruvate-d3_roughopt.chk"
 B after Tr=     0.000000    0.000000   -0.000000
         Rot=    1.000000   -0.000000    0.000001    0.000294 Ang=  -0.03 deg.
 ExpMin= 1.69D-01 ExpMax= 1.31D+02 ExpMxC= 1.31D+02 IAcc=3 IRadAn=         5 AccDes= 0.00D+00
 Harris functional with IExCor=  205 and IRadAn=       5 diagonalized for initial guess.
 HarFok:  IExCor=  205 AccDes= 0.00D+00 IRadAn=         5 IDoV= 1 UseB2=F ITyADJ=14
 ICtDFT=  3500011 ScaDFX=  1.000000  1.000000  1.000000  1.000000
 FoFCou: FMM=F IPFlag=           0 FMFlag=      100000 FMFlg1=           0
         NFxFlg=           0 DoJE=T BraDBF=F KetDBF=T FulRan=T
         wScrn=  0.000000 ICntrl=       500 IOpCl=  0 I1Cent=   200000004 NGrid=           0
         NMat0=    1 NMatS0=      1 NMatT0=    0 NMatD0=    1 NMtDS0=    0 NMtDT0=    0
 Petite list used in FoFCou.
 Keep R1 ints in memory in canonical form, NReq=5829004.
 Requested convergence on RMS density matrix=1.00D-08 within 128 cycles.
 Requested convergence on MAX density matrix=1.00D-06.
 Requested convergence on             energy=1.00D-06.
 No special actions if energy rises.
 SCF Done:  E(RHF) =  -336.031957784     A.U. after   12 cycles
            NFock= 12  Conv=0.33D-08     -V/T= 2.0092
 Calling FoFJK, ICntrl=      2127 FMM=F ISym2X=0 I1Cent= 0 IOpClX= 0 NMat=1 NMatS=1 NMatT=0.
 ***** Axes restored to original set *****
 -------------------------------------------------------------------
 Center     Atomic                   Forces (Hartrees/Bohr)
 Number     Number              X              Y              Z
 -------------------------------------------------------------------
      1        6           0.001345983    0.000635695   -0.003191733
      2        6           0.000061492    0.000300618    0.000648003
      3        8           0.000199755    0.000186833   -0.000332131
      4        6           0.000485511    0.000591951   -0.000607517
      5        8           0.000277258    0.000432461    0.000086784
      6        8          -0.000300172    0.000059783    0.001204444
      7        1          -0.001509499   -0.001508442    0.001826879
      8        1           0.000442072   -0.000063512    0.000589091
      9        1          -0.000438284    0.000506624    0.000335365
     10        1          -0.000564116   -0.001142011   -0.000559184
 -------------------------------------------------------------------
 Cartesian Forces:  Max     0.003191733 RMS     0.000945294

 GradGradGradGradGradGradGradGradGradGradGradGradGradGradGradGradGradGrad
 Berny optimization.
 Using GEDIIS/GDIIS optimizer.
 FormGI is forming the generalized inverse of G from B-inverse, IUseBI=4.
 Internal  Forces:  Max     0.002793346 RMS     0.000717170
 Search for a local minimum.
 Step number   6 out of a maximum of   44
 All quantities printed in internal units (Hartrees-Bohrs-Radians)
 Mixed Optimization -- En-DIIS/RFO-DIIS
 Update second derivatives using D2CorX and points    3    4    5    6
 DE= -1.33D-04 DEPred=-1.72D-04 R= 7.74D-01
 TightC=F SS=  1.41D+00  RLast= 3.17D-02 DXNew= 8.4853D-01 9.5156D-02
 Trust test= 7.74D-01 RLast= 3.17D-02 DXMaxT set to 5.05D-01
 ITU=  1  1  1  0  1  0
 Use linear search instead of GDIIS.
     Eigenvalues ---    0.00626   0.00706   0.00751   0.01182   0.02345
     Eigenvalues ---    0.07423   0.07474   0.14595   0.15708   0.15973
     Eigenvalues ---    0.16000   0.20557   0.24305   0.24963   0.24992
     Eigenvalues ---    0.27236   0.31243   0.32191   0.37058   0.48454
     Eigenvalues ---    0.51010   0.59032   0.90412   0.99131
 RFO step:  Lambda=-3.90811636D-05 EMin= 6.26142861D-03
 Quartic linear search produced a step of -0.17899.
 Iteration  1 RMS(Cart)=  0.00374219 RMS(Int)=  0.00001551
 Iteration  2 RMS(Cart)=  0.00001415 RMS(Int)=  0.00000030
 Iteration  3 RMS(Cart)=  0.00000000 RMS(Int)=  0.00000030
 Variable       Old X    -DE/DX   Delta X   Delta X   Delta X     New X
                                 (Linear)    (Quad)   (Total)
    R1        2.90250  -0.00062  -0.00003  -0.00143  -0.00146   2.90104
    R2        2.05602  -0.00279  -0.00434  -0.00173  -0.00607   2.04996
    R3        2.05218   0.00071   0.00134   0.00096   0.00230   2.05448
    R4        2.05216   0.00072   0.00135   0.00097   0.00233   2.05449
    R5        2.30888  -0.00036  -0.00020   0.00021   0.00002   2.30889
    R6        2.95486  -0.00015  -0.00083   0.00159   0.00076   2.95562
    R7        2.29676   0.00042  -0.00016   0.00067   0.00051   2.29727
    R8        2.61806   0.00086   0.00015   0.00052   0.00067   2.61874
    R9        1.87302   0.00045   0.00033  -0.00021   0.00011   1.87313
    A1        1.90954   0.00035  -0.00175   0.00573   0.00398   1.91352
    A2        1.92033   0.00016  -0.00067   0.00228   0.00161   1.92194
    A3        1.92032   0.00017  -0.00066   0.00230   0.00164   1.92196
    A4        1.90978  -0.00026   0.00082  -0.00310  -0.00228   1.90750
    A5        1.90978  -0.00026   0.00082  -0.00311  -0.00228   1.90750
    A6        1.89397  -0.00018   0.00146  -0.00424  -0.00279   1.89118
    A7        2.18897   0.00023   0.00001   0.00045   0.00046   2.18944
    A8        2.04797   0.00007   0.00001   0.00027   0.00029   2.04825
    A9        2.04625  -0.00030  -0.00002  -0.00073  -0.00075   2.04550
   A10        2.17422  -0.00020  -0.00001  -0.00050  -0.00051   2.17371
   A11        1.96826  -0.00032  -0.00050   0.00033  -0.00017   1.96810
   A12        2.14070   0.00052   0.00050   0.00017   0.00068   2.14137
   A13        1.80145   0.00247  -0.00013   0.01057   0.01044   1.81189
    D1        3.14147   0.00000   0.00004   0.00044   0.00048  -3.14124
    D2        0.00013  -0.00001  -0.00004  -0.00043  -0.00047  -0.00034
    D3        1.04282  -0.00000   0.00052  -0.00074  -0.00022   1.04260
    D4       -2.09852  -0.00001   0.00045  -0.00161  -0.00116  -2.09968
    D5       -1.04307   0.00001  -0.00044   0.00163   0.00119  -1.04189
    D6        2.09877   0.00000  -0.00052   0.00076   0.00024   2.09902
    D7       -0.00027   0.00002   0.00008   0.00085   0.00093   0.00066
    D8       -3.14145  -0.00001  -0.00004  -0.00043  -0.00048   3.14126
    D9        3.14156   0.00001   0.00001   0.00006   0.00007  -3.14156
   D10        0.00038  -0.00002  -0.00012  -0.00123  -0.00134  -0.00097
   D11       -0.00017   0.00001   0.00005   0.00055   0.00061   0.00044
   D12       -3.14136  -0.00002  -0.00007  -0.00070  -0.00077   3.14106
         Item               Value     Threshold  Converged?
 Maximum Force            0.002793     0.000450     NO 
 RMS     Force            0.000717     0.000300     NO 
 Maximum Displacement     0.014018     0.001800     NO 
 RMS     Displacement     0.003740     0.001200     NO 
 Predicted change in Energy=-2.608082D-05
 GradGradGradGradGradGradGradGradGradGradGradGradGradGradGradGradGradGrad

                          Input orientation:                          
 ---------------------------------------------------------------------
 Center     Atomic      Atomic             Coordinates (Angstroms)
 Number     Number       Type             X           Y           Z
 ---------------------------------------------------------------------
      1          6           0        0.961645    0.038356   -0.094159
      2          6           0        0.455548   -1.138890   -0.939553
      3          8           0       -0.250114   -2.050378   -0.534513
      4          6           0        0.876646   -1.175783   -2.445394
      5          8           0        1.573937   -0.340058   -2.986862
      6          8           0        0.369053   -2.276358   -3.117299
      7          1           0        1.566087    0.695963   -0.709766
[...]
   D10       -0.01258   0.00000   0.00000   0.00010   0.00010  -0.01248
   D11        0.00448   0.00000   0.00000  -0.00002  -0.00002   0.00447
   D12       -3.13704   0.00000   0.00000  -0.00002  -0.00002  -3.13706
         Item               Value     Threshold  Converged?
 Maximum Force            0.000003     0.000450     YES
 RMS     Force            0.000001     0.000300     YES
 Maximum Displacement     0.000780     0.001800     YES
 RMS     Displacement     0.000306     0.001200     YES
 Predicted change in Energy=-1.053319D-09
 Optimization completed.
    -- Stationary point found.
                           ----------------------------
                           !   Optimized Parameters   !
                           ! (Angstroms and Degrees)  !
 --------------------------                            --------------------------
 ! Name  Definition              Value          Derivative Info.                !
 --------------------------------------------------------------------------------
 ! R1    R(1,2)                  1.4906         -DE/DX =    0.0                 !
 ! R2    R(1,7)                  1.0962         -DE/DX =    0.0                 !
 ! R3    R(1,8)                  1.0904         -DE/DX =    0.0                 !
 ! R4    R(1,9)                  1.0954         -DE/DX =    0.0                 !
 ! R5    R(2,3)                  1.221          -DE/DX =    0.0                 !
 ! R6    R(2,4)                  1.5487         -DE/DX =    0.0                 !
 ! R7    R(4,5)                  1.2095         -DE/DX =    0.0                 !
 ! R8    R(4,6)                  1.3351         -DE/DX =    0.0                 !
 ! R9    R(6,10)                 0.9815         -DE/DX =    0.0                 !
 ! A1    A(2,1,7)              109.4441         -DE/DX =    0.0                 !
 ! A2    A(2,1,8)              110.3492         -DE/DX =    0.0                 !
 ! A3    A(2,1,9)              109.8408         -DE/DX =    0.0                 !
 ! A4    A(7,1,8)              110.0667         -DE/DX =    0.0                 !
 ! A5    A(7,1,9)              106.707          -DE/DX =    0.0                 !
 ! A6    A(8,1,9)              110.3622         -DE/DX =    0.0                 !
 ! A7    A(1,2,3)              125.6702         -DE/DX =    0.0                 !
 ! A8    A(1,2,4)              117.5684         -DE/DX =    0.0                 !
 ! A9    A(3,2,4)              116.7611         -DE/DX =    0.0                 !
 ! A10   A(2,4,5)              123.894          -DE/DX =    0.0                 !
 ! A11   A(2,4,6)              112.4563         -DE/DX =    0.0                 !
 ! A12   A(5,4,6)              123.6497         -DE/DX =    0.0                 !
 ! A13   A(4,6,10)             106.2083         -DE/DX =    0.0                 !
 ! D1    D(7,1,2,3)            119.1628         -DE/DX =    0.0                 !
 ! D2    D(7,1,2,4)            -60.6379         -DE/DX =    0.0                 !
 ! D3    D(8,1,2,3)             -2.1036         -DE/DX =    0.0                 !
 ! D4    D(8,1,2,4)            178.0957         -DE/DX =    0.0                 !
 ! D5    D(9,1,2,3)           -123.9983         -DE/DX =    0.0                 !
 ! D6    D(9,1,2,4)             56.201          -DE/DX =    0.0                 !
 ! D7    D(1,2,4,5)             -0.9063         -DE/DX =    0.0                 !
 ! D8    D(1,2,4,6)            179.098          -DE/DX =    0.0                 !
 ! D9    D(3,2,4,5)            179.2751         -DE/DX =    0.0                 !
 ! D10   D(3,2,4,6)             -0.7207         -DE/DX =    0.0                 !
 ! D11   D(2,4,6,10)             0.2569         -DE/DX =    0.0                 !
 ! D12   D(5,4,6,10)          -179.7389         -DE/DX =    0.0                 !
 --------------------------------------------------------------------------------
 GradGradGradGradGradGradGradGradGradGradGradGradGradGradGradGradGradGrad


 ----------------------------------------------------------------------

 Electric dipole moment (input orientation):
 (Debye = 10**-18 statcoulomb cm , SI units = C m)
                  (au)            (Debye)         (10**-30 SI)
   Tot        0.112641D+01      0.286305D+01      0.955009D+01
   x          0.268487D-01      0.682425D-01      0.227632D+00
   y          0.586373D-01      0.149041D+00      0.497148D+00
   z          0.112456D+01      0.285835D+01      0.953443D+01

 Dipole polarizability, Alpha (input orientation).
 (esu units = cm**3 , SI units = C**2 m**2 J**-1)
 Alpha(0;0):
               (au)            (10**-24 esu)      (10**-40 SI)
   iso        0.452086D+02      0.669923D+01      0.745390D+01
   aniso      0.264966D+02      0.392638D+01      0.436869D+01
   xx         0.326373D+02      0.483635D+01      0.538117D+01
   yx         0.964042D+01      0.142856D+01      0.158949D+01
   yy         0.559950D+02      0.829760D+01      0.923233D+01
   zx        -0.716781D+00     -0.106216D+00     -0.118181D+00
   zy        -0.133656D+01     -0.198058D+00     -0.220369D+00
   zz         0.469936D+02      0.696373D+01      0.774819D+01

 First dipole hyperpolarizability, Beta (input orientation).
 ||, _|_  parallel and perpendicular components, (z) with respect to z axis,
 vector components x,y,z.  Values do not include the 1/n! factor of 1/2.
 (esu units = statvolt**-1 cm**4 , SI units = C**3 m**3 J**-2)
 Beta(0;0,0):
               (au)            (10**-30 esu)      (10**-50 SI)
   || (z)     0.347805D+02      0.300477D+00      0.111519D+00
   _|_(z)     0.115935D+02      0.100159D+00      0.371730D-01
   x         -0.254304D+02     -0.219699D+00     -0.815391D-01
   y         -0.600429D+02     -0.518724D+00     -0.192519D+00
   z          0.173903D+03      0.150238D+01      0.557595D+00
   ||         0.371451D+02      0.320905D+00      0.119101D+00
   xxx        0.453821D+02      0.392066D+00      0.145512D+00
   xxy        0.225549D+02      0.194857D+00      0.723192D-01
   yxy       -0.374138D+02     -0.323226D+00     -0.119962D+00
   yyy       -0.111355D+02     -0.962017D-01     -0.357043D-01
   xxz       -0.125398D+02     -0.108335D+00     -0.402073D-01
   yxz       -0.144715D+01     -0.125022D-01     -0.464007D-02
   yyz       -0.208980D+02     -0.180543D+00     -0.670067D-01
   zxz       -0.164452D+02     -0.142073D+00     -0.527292D-01
   zyz       -0.314337D+02     -0.271563D+00     -0.100788D+00
   zzz        0.914054D+02      0.789672D+00      0.293079D+00

 ----------------------------------------------------------------------

 Dipole orientation:
     6          1.90074324         -0.01795959         -0.15739397
     6          1.14467572         -2.16262654         -1.81955977
     8          0.38466809         -4.21903934         -1.10047152
     6          1.34166421         -1.76861043         -4.71290670
     8          2.04038027          0.17609729         -5.68984073
     8          0.65311606         -3.81785942         -6.01369354
     1          3.89099590          0.44739179         -0.49453510
     1          1.61561619         -0.51108430          1.82280024
     1          0.80444346          1.66884591         -0.64462997
     1          0.17366963         -5.09311906         -4.75506708

 Electric dipole moment (dipole orientation):
 (Debye = 10**-18 statcoulomb cm , SI units = C m)
                  (au)            (Debye)         (10**-30 SI)
   Tot        0.112641D+01      0.286305D+01      0.955009D+01
   x          0.000000D+00      0.000000D+00      0.000000D+00
   y          0.000000D+00      0.000000D+00      0.000000D+00
   z          0.112641D+01      0.286305D+01      0.955009D+01

 Dipole polarizability, Alpha (dipole orientation).
 (esu units = cm**3 , SI units = C**2 m**2 J**-1)
 Alpha(0;0):
               (au)            (10**-24 esu)      (10**-40 SI)
   iso        0.452086D+02      0.669923D+01      0.745390D+01
   aniso      0.264966D+02      0.392638D+01      0.436869D+01
   xx         0.326677D+02      0.484085D+01      0.538617D+01
   yx         0.969700D+01      0.143695D+01      0.159882D+01
   yy         0.560976D+02      0.831280D+01      0.924924D+01
   zx        -0.553326D+00     -0.819944D-01     -0.912311D-01
   zy        -0.630276D+00     -0.933973D-01     -0.103919D+00
   zz         0.468607D+02      0.694404D+01      0.772628D+01

 First dipole hyperpolarizability, Beta (dipole orientation).
 ||, _|_  parallel and perpendicular components, (z) with respect to z axis,
 vector components x,y,z.  Values do not include the 1/n! factor of 1/2.
 (esu units = statvolt**-1 cm**4 , SI units = C**3 m**3 J**-2)
 Beta(0;0,0):
               (au)            (10**-30 esu)      (10**-50 SI)
   || (z)     0.339771D+02      0.293536D+00      0.108943D+00
   _|_(z)     0.113257D+02      0.978452D-01      0.363143D-01
   x         -0.295310D+02     -0.255125D+00     -0.946870D-01
   y         -0.689985D+02     -0.596093D+00     -0.221234D+00
   z          0.169886D+03      0.146768D+01      0.544714D+00
   ||         0.371451D+02      0.320905D+00      0.119101D+00
   xxx        0.461682D+02      0.398857D+00      0.148032D+00
   xxy        0.231887D+02      0.200332D+00      0.743513D-01
   yxy       -0.368061D+02     -0.317976D+00     -0.118014D+00
   yyy       -0.803417D+01     -0.694090D-01     -0.257605D-01
   xxz       -0.940404D+01     -0.812436D-01     -0.301528D-01
   yxz       -0.107286D+01     -0.926867D-02     -0.343997D-02
   yyz       -0.186509D+02     -0.161129D+00     -0.598014D-01
   zxz       -0.192058D+02     -0.165923D+00     -0.615806D-01
   zyz       -0.381540D+02     -0.329621D+00     -0.122336D+00
   zzz        0.846834D+02      0.731599D+00      0.271526D+00

 ----------------------------------------------------------------------
 1\1\GINC-HPC-52-28\Freq\RB3LYP\6-31G(d,p)\C3H4O3\PKOCHERI\15-Sep-2025\
 0\\#N Geom=AllCheck Guess=TCheck SCRF=Check GenChk RB3LYP/6-31G(d,p) F
 req\\Pyruvate-d3 HF/STO-3G rough geometry optimization\\0,1\C,1.003564
 6932,-0.014451229,-0.1066325256\C,0.5833240744,-1.1933608601,-0.916153
 6651\O,0.1910054347,-2.2600332981,-0.470017937\C,0.6509122318,-1.06490
 78992,-2.4580741124\O,1.0075904181,-0.064349898,-3.0365818649\O,0.2709
 179827,-2.1834601579,-3.0801555843\H,2.0520562668,0.2215269034,-0.3226
 700435\H,0.8778636063,-0.2204050176,0.9567028633\H,0.4168928914,0.8638
 9552,-0.3966827924\H,0.0335724005,-2.8225540635,-2.3740343382\\Version
 =ES64L-G16RevB.01\HF=-342.4211953\RMSD=4.151e-09\RMSF=7.649e-06\ZeroPo
 int=0.061826\Thermal=0.0683446\Dipole=0.0268487,0.0586373,1.1245613\Di
 poleDeriv=-0.103499,-0.1468839,-0.0789906,-0.1350027,-0.4112208,-0.187
 415,-0.0773565,-0.1934789,-0.1033705,0.4155625,0.356873,0.0571681,0.35
 66955,1.2512517,0.1820643,0.0276666,0.0847019,0.9023373,-0.4474256,-0.
 2612712,0.0136461,-0.2637532,-1.0701397,0.008646,0.038521,0.0866002,-0
 .8004235,0.5369486,0.4548919,-0.0189292,0.4586441,1.6959366,-0.02347,0
 .0501984,0.165433,1.0012758,-0.49128,-0.2075283,0.0447393,-0.2021104,-
 0.9973516,0.1056559,0.1023609,0.285176,-0.8082756,-0.4987234,-0.275993
 9,-0.0598837,-0.2818662,-1.2211665,-0.1855284,-0.1802565,-0.5304802,-0
 .7757044,0.0146241,-0.0146686,0.0411694,-0.0087923,0.1405215,-0.007078
 5,0.050955,-0.0450891,0.0828538,0.1051172,-0.0150619,0.0236226,-0.0196
 136,0.0648601,0.0397219,0.0081962,0.0015062,-0.0655899,0.092215,0.0735
 069,-0.0340586,0.0563408,0.0709267,0.0263621,-0.0675387,0.0090996,0.07
 46255,0.3764606,0.036136,0.0115167,0.039458,0.476382,0.0410417,0.04725
 34,0.1365313,0.4922716\Polar=32.637341,9.6404162,55.9950113,-0.7167805
 ,-1.33656,46.9935673\PolarDeriv=-7.4918631,-6.1562961,2.2585585,0.9607
 7,-1.0265649,1.6672542,-2.6906579,1.3065208,-8.7500367,-0.7956132,0.33
 92113,3.2603316,2.9895033,-0.6577799,2.8259907,1.0532437,1.5507342,-6.
 5255413,0.9729819,1.8885014,2.5250788,-2.3869035,0.3238851,0.1838094,0
 .4799455,3.0195604,8.5615101,0.3374294,-1.6858098,1.0897587,-1.3732844
 ,-1.2201906,-4.4821124,0.9934583,3.2401027,0.7010153,-2.8131196,-4.245
 8656,-2.9426303,2.2135535,0.0320865,-1.390532,-1.0872846,-4.0584448,-1
 4.1401874,0.0407197,2.134481,-3.9594477,0.996137,1.4181171,4.3197426,-
 1.7919021,-4.9265835,4.9222597,-0.8025332,-0.8449313,-0.8396678,1.7147
 643,0.8022783,-0.8583679,-0.8460404,-0.8036531,-3.5068202,0.828247,3.7
 262453,-2.5368819,0.5967054,2.4111858,6.4178409,-1.586222,-4.5077877,1
 .4363192,2.7656648,3.8440159,1.7014977,-2.5735009,-0.6319995,1.595199,
 1.2177512,2.6332312,11.387806,-0.6712313,-4.0532131,4.5746919,-1.03116
 27,-1.0658414,-3.627522,2.0521818,5.7144349,-7.5812738,-0.9137918,-1.3
 892797,0.6588299,-1.9960813,-0.1908595,0.1411441,0.2507754,0.0029449,-
 1.6573464,-0.2443546,-2.6152869,0.0845096,-0.8415426,-2.081634,-6.0667
 151,-0.8763927,-2.7981263,-9.2304862,11.9309083,4.0714517,1.8213409,-0
 .1494841,0.5692231,1.0487779,1.3697677,3.2184291,3.9377234,0.3100116,-
 0.1534896,-0.2567017,-1.3335033,-0.4163626,-1.4230127,2.5760922,0.0040
 87,-0.0119608,0.2727353,0.2768669,-0.6303266,2.8336304,-0.1060804,-0.8
 724094,0.1990236,-0.7438799,-0.5882437,-0.1165698,2.2988757,-1.4898937
 ,0.5722014,0.1261778,0.7298455,-0.5308186,-0.2962464,12.982899,-2.6069
 732,4.5492133,-3.3194987,-0.6855463,0.192477,-0.984354,1.6622869,-2.89
 65566,11.2581079,0.2128775,-0.2608422,0.5342189,-0.9149842,0.2145435,-
 2.292417,-1.9706524,1.6409391,-0.6417242,-1.3140094,-1.9936765,-1.2331
 824,0.0687979,0.0355542,-0.5305213,-0.5555673,-1.6781521,-6.5025131,0.
 0984838,0.2698283,-1.3005857,0.33993,1.2717842,3.5983595,0.0810118,0.3
 78446,3.9484931\HyperPolar=45.3821264,22.5549237,-37.4137541,-11.13546
 49,-12.5398498,-1.4471451,-20.8980464,-16.4451726,-31.4337495,91.40542
 18\Quadrupole=4.5792908,3.1419967,-7.7212875,-0.4984457,2.8939529,1.77
 98586\PG=C01 [X(C3H4O3)]\NImag=0\\0.52141771,-0.00677736,0.51139517,-0
 .01907629,-0.04568366,0.59149251,-0.08965256,-0.02175157,-0.02259276,0
 .28066521,-0.02121879,-0.14589517,-0.06464504,0.23783507,0.84939520,-0
 .02031530,-0.05953897,-0.15075589,-0.03905600,-0.09501857,0.53124375,0
 .01302406,-0.02617885,0.00504866,-0.12685281,-0.18972947,0.07419617,0.
 10640330,-0.02643980,-0.04850762,0.01266089,-0.18978199,-0.57425770,0.
 19999091,0.22691908,0.63961558,-0.00398665,-0.01169162,0.02177411,0.07
 459179,0.20027494,-0.19367282,-0.08933701,-0.24002742,0.21065135,0.016
 35350,-0.00299305,-0.00859939,-0.09559441,0.00807360,-0.01251594,0.016
 96489,-0.01720541,0.01412336,0.25709331,-0.00271536,0.00867575,-0.0236
 2871,0.00867768,-0.07549194,-0.03739239,-0.01732172,-0.02341624,0.0362
 5510,0.25546404,0.88899865,0.00020075,-0.00065944,-0.01038423,-0.00790
 327,-0.02460170,-0.15502807,0.00802704,0.01989456,-0.01678400,-0.06878
 607,-0.17789816,0.63697008,-0.00366624,0.00120445,0.00018782,0.0188244
 3,-0.01143008,0.00468847,-0.00284831,0.00113762,0.00327526,-0.11923314
 ,-0.16521537,0.09999272,0.10141091,0.00127897,-0.00090129,0.00020662,-
 0.01139991,-0.00971470,0.01283505,0.00110249,0.00051253,0.00911162,-0.
 16523300,-0.52324120,0.27802024,0.21232884,0.62327183,-0.00074687,-0.0
 0227125,-0.00148027,0.01279371,0.03665608,-0.00040999,0.00323054,0.008
 44653,-0.01623904,0.09694015,0.26991941,-0.28430894,-0.10898051,-0.304
 12490,0.26881459,-0.00050556,0.00111408,-0.00124974,0.01542730,-0.0114
 2343,-0.00035904,0.00087691,0.00316514,0.00232724,-0.06466449,-0.06194
 772,-0.04097434,-0.00248522,-0.03637246,-0.00117676,0.09194912,0.00139
 034,0.00235451,-0.00402483,-0.01211476,-0.01497238,-0.00346223,0.00296
 684,0.00945387,0.00687525,-0.06077395,-0.22264493,-0.12394451,-0.03610
 010,-0.09342786,-0.00227769,0.17260915,0.51735666,0.00112481,0.0028191
 0,-0.00784218,-0.01082721,-0.03310587,-0.02562548,-0.00188906,-0.00514
 007,-0.01149255,-0.02069470,-0.06679742,-0.19547926,0.00503377,0.01599
 457,0.03847284,-0.03414271,-0.07567690,0.46745613,-0.29021343,-0.05714
 638,0.05112902,-0.00793476,-0.00277641,0.00200958,-0.00008229,0.000781
 05,-0.00166197,0.00002439,-0.00215539,0.00004440,0.00069618,0.00100918
 ,0.00049882,0.00012428,0.00051454,-0.00013423,0.31371043,-0.06006670,-
 0.04925464,0.00995880,-0.02750298,-0.00772940,0.00845352,0.00184031,-0
 .00431275,-0.00382408,0.00250382,-0.00104628,0.00015413,-0.00050254,0.
 00054456,-0.00050067,-0.00021528,0.00023212,-0.00022260,0.06314900,0.0
 5723387,0.04930352,0.00804985,-0.05839988,-0.01773600,0.00176002,0.005
 59519,0.00054739,-0.00382096,-0.00052333,0.00248130,-0.00089050,-0.000
 19133,-0.00081571,0.00043659,-0.00095532,-0.00024882,0.00053085,0.0000
 0689,-0.05517309,-0.01050976,0.05530184,-0.05184927,-0.00636626,0.0337
 6719,0.00005074,0.00195118,-0.01146958,-0.00064196,0.00163320,0.000826
 51,0.00130419,-0.00242937,0.00002763,0.00002749,0.00032751,0.00007106,
 -0.00029561,-0.00033080,-0.00083313,-0.00025367,-0.00480651,0.02901175
 ,0.04935256,-0.00665444,-0.06002241,0.05670236,0.00375975,0.00514500,-
 0.03106215,0.00136538,0.00282612,0.00262425,-0.00259901,-0.00447385,0.
 00032936,0.00039874,0.00098370,0.00029350,-0.00023376,-0.00100842,-0.0
 0223765,0.00060838,-0.00220104,0.00592291,0.00862809,0.06080604,0.0316
 4360,0.05138116,-0.31463345,0.00266140,0.00514289,-0.01908769,0.000259
 55,0.00132097,0.00365510,-0.00082862,-0.00239121,0.00106087,0.00009660
 ,0.00016408,-0.00002928,-0.00026490,-0.00077180,-0.00139669,-0.0001302
 8,0.00034524,-0.00249829,-0.03435106,-0.05570146,0.33738670,-0.1159160
 6,0.11940641,-0.03926382,0.00559584,-0.01026438,0.00445362,-0.00275328
 ,-0.00167417,-0.00153052,-0.00047790,0.00164092,-0.00004741,0.00019371
 ,-0.00084542,-0.00062130,0.00000632,-0.00034446,0.00000536,-0.01610680
 ,0.02540308,-0.00747353,0.00218473,-0.00542921,0.00080265,0.12735294,0
 .12167581,-0.21779950,0.05672525,0.01357321,-0.02256061,0.00967950,-0.
 00257507,-0.00182608,-0.00425149,-0.00278609,-0.00068493,0.00018812,0.
 00051693,0.00117246,0.00015829,0.00043539,0.00047627,-0.00019690,-0.00
 392627,0.00658686,-0.00147500,0.00122838,-0.00256286,0.00020179,-0.127
 94110,0.23715305,-0.03952080,0.05438191,-0.06819613,0.01393523,-0.0101
 7646,0.00734904,-0.00327738,-0.00303838,-0.00075661,-0.00226096,0.0007
 6634,-0.00019830,0.00071707,-0.00002519,-0.00123276,0.00055971,0.00035
 952,0.00010801,0.00322204,-0.00432893,0.00117542,-0.01687700,0.0235480
 3,-0.00431868,0.04358619,-0.06154561,0.06556964,0.00100785,-0.00051148
 ,0.00064930,-0.00052897,-0.00101728,-0.00163199,-0.00409050,0.00146528
 ,0.00137199,-0.01177034,-0.01399771,0.00941855,0.00708020,-0.00219619,
 -0.00200885,-0.04043305,-0.06781680,0.06235709,0.00003568,0.00019779,0
 .00010319,0.00012080,0.00015608,0.00011106,-0.00007952,-0.00020119,-0.
 00008411,0.04865786,-0.00047267,-0.00004481,0.00172832,-0.00129451,-0.
 00391828,-0.00448467,0.00161100,-0.00008771,0.00465344,-0.01445094,-0.
 04667504,0.02851740,-0.00233850,0.00079998,-0.00629930,-0.06713110,-0.
 19781984,0.16456375,-0.00005769,-0.00005330,-0.00000400,0.00016458,0.0
 0050772,0.00030833,0.00004834,0.00004534,0.00005879,0.08392150,0.24724
 593,0.00137322,0.00321292,-0.00157458,-0.00586690,-0.01628629,0.000391
 97,0.00319411,0.00971298,0.00338778,0.00014087,0.00205753,0.02434317,-
 0.00419550,-0.01261869,-0.00263182,0.07552935,0.20239234,-0.26420771,0
 .00019572,0.00047435,0.00048879,-0.00017337,-0.00041915,-0.00013859,0.
 00008875,0.00051605,0.00050037,-0.07028624,-0.18904204,0.23944061\\-0.
 00000472,0.00000586,-0.00000334,-0.00000358,0.00000279,-0.00000112,-0.
 00001070,0.00000603,0.00000698,0.00000633,-0.00000983,0.00000344,0.000
 01634,-0.00000994,-0.00000466,0.00000842,-0.00001002,0.00000518,-0.000
 00181,0.00000150,0.00000251,-0.00001298,0.00001274,-0.00000382,0.00000
 201,0.00000716,-0.00001412,0.00000068,-0.00000629,0.00000896\\\@


 LOGIC IS A SYSTEMATIC METHOD OF COMING TO THE
 WRONG CONCLUSION WITH CONFIDENCE.
 Job cpu time:       0 days  0 hours  9 minutes 30.0 seconds.
 Elapsed time:       0 days  0 hours  0 minutes 19.4 seconds.
 File lengths (MBytes):  RWF=     67 Int=      0 D2E=      0 Chk=      6 Scr=      2
 Normal termination of Gaussian 16 at Mon Sep 15 18:25:06 2025.
